V -t * -v 1.0a5 -a 0
A -t * -n 1 -p 0 -o 0x7fffffff -c 30 -a 1
A -t * -h 1 -m 1073741823 -s 0
c -t * -i 1 -n Blue
c -t * -i 2 -n Red
c -t * -i 3 -n Green
n -t * -a 4 -s 4 -S UP -v circle -c black -i black
n -t * -a 0 -s 0 -S UP -v circle -c black -i black
n -t * -a 5 -s 5 -S UP -v circle -c black -i black
n -t * -a 1 -s 1 -S UP -v circle -c black -i black
n -t * -a 6 -s 6 -S UP -v circle -c black -i black
n -t * -a 2 -s 2 -S UP -v circle -c black -i black
n -t * -a 7 -s 7 -S UP -v circle -c black -i black
n -t * -a 3 -s 3 -S UP -v circle -c black -i black
l -t * -s 0 -d 2 -S UP -r 1000000 -D 0.002 -c black -o right-down
l -t * -s 1 -d 2 -S UP -r 1000000 -D 0.002 -c black -o right-up
l -t * -s 2 -d 3 -S UP -r 700000 -D 0.002 -c black -o right
l -t * -s 4 -d 3 -S UP -r 1000000 -D 0.002 -c black -o right-down
l -t * -s 3 -d 5 -S UP -r 700000 -D 0.002 -c black -o right
l -t * -s 5 -d 6 -S UP -r 1000000 -D 0.002 -c black -o right-up
l -t * -s 5 -d 7 -S UP -r 1000000 -D 0.002 -c black -o right-down
+ -t 1 -s 1 -d 2 -p tcp -e 40 -c 2 -i 0 -a 2 -x {1.0 6.0 0 ------- null}
- -t 1 -s 1 -d 2 -p tcp -e 40 -c 2 -i 0 -a 2 -x {1.0 6.0 0 ------- null}
h -t 1 -s 1 -d 2 -p tcp -e 40 -c 2 -i 0 -a 2 -x {1.0 6.0 -1 ------- null}
+ -t 1 -s 1 -d 2 -p tcp -e 1040 -c 2 -i 1 -a 2 -x {1.0 6.0 1 ------- null}
- -t 1.00032 -s 1 -d 2 -p tcp -e 1040 -c 2 -i 1 -a 2 -x {1.0 6.0 1 ------- null}
h -t 1.00032 -s 1 -d 2 -p tcp -e 1040 -c 2 -i 1 -a 2 -x {1.0 6.0 -1 ------- null}
r -t 1.00232 -s 1 -d 2 -p tcp -e 40 -c 2 -i 0 -a 2 -x {1.0 6.0 0 ------- null}
+ -t 1.00232 -s 2 -d 3 -p tcp -e 40 -c 2 -i 0 -a 2 -x {1.0 6.0 0 ------- null}
- -t 1.00232 -s 2 -d 3 -p tcp -e 40 -c 2 -i 0 -a 2 -x {1.0 6.0 0 ------- null}
h -t 1.00232 -s 2 -d 3 -p tcp -e 40 -c 2 -i 0 -a 2 -x {1.0 6.0 -1 ------- null}
r -t 1.00477714285714 -s 2 -d 3 -p tcp -e 40 -c 2 -i 0 -a 2 -x {1.0 6.0 0 ------- null}
+ -t 1.00477714285714 -s 3 -d 5 -p tcp -e 40 -c 2 -i 0 -a 2 -x {1.0 6.0 0 ------- null}
- -t 1.00477714285714 -s 3 -d 5 -p tcp -e 40 -c 2 -i 0 -a 2 -x {1.0 6.0 0 ------- null}
h -t 1.00477714285714 -s 3 -d 5 -p tcp -e 40 -c 2 -i 0 -a 2 -x {1.0 6.0 -1 ------- null}
r -t 1.00723428571429 -s 3 -d 5 -p tcp -e 40 -c 2 -i 0 -a 2 -x {1.0 6.0 0 ------- null}
+ -t 1.00723428571429 -s 5 -d 6 -p tcp -e 40 -c 2 -i 0 -a 2 -x {1.0 6.0 0 ------- null}
- -t 1.00723428571429 -s 5 -d 6 -p tcp -e 40 -c 2 -i 0 -a 2 -x {1.0 6.0 0 ------- null}
h -t 1.00723428571429 -s 5 -d 6 -p tcp -e 40 -c 2 -i 0 -a 2 -x {1.0 6.0 -1 ------- null}
r -t 1.00955428571429 -s 5 -d 6 -p tcp -e 40 -c 2 -i 0 -a 2 -x {1.0 6.0 0 ------- null}
+ -t 1.00955428571429 -s 6 -d 5 -p ack -e 40 -c 2 -i 2 -a 2 -x {6.0 1.0 0 ------- null}
- -t 1.00955428571429 -s 6 -d 5 -p ack -e 40 -c 2 -i 2 -a 2 -x {6.0 1.0 0 ------- null}
h -t 1.00955428571429 -s 6 -d 5 -p ack -e 40 -c 2 -i 2 -a 2 -x {6.0 1.0 -1 ------- null}
r -t 1.01064 -s 1 -d 2 -p tcp -e 1040 -c 2 -i 1 -a 2 -x {1.0 6.0 1 ------- null}
+ -t 1.01064 -s 2 -d 3 -p tcp -e 1040 -c 2 -i 1 -a 2 -x {1.0 6.0 1 ------- null}
- -t 1.01064 -s 2 -d 3 -p tcp -e 1040 -c 2 -i 1 -a 2 -x {1.0 6.0 1 ------- null}
h -t 1.01064 -s 2 -d 3 -p tcp -e 1040 -c 2 -i 1 -a 2 -x {1.0 6.0 -1 ------- null}
r -t 1.01187428571429 -s 6 -d 5 -p ack -e 40 -c 2 -i 2 -a 2 -x {6.0 1.0 0 ------- null}
+ -t 1.01187428571429 -s 5 -d 3 -p ack -e 40 -c 2 -i 2 -a 2 -x {6.0 1.0 0 ------- null}
- -t 1.01187428571429 -s 5 -d 3 -p ack -e 40 -c 2 -i 2 -a 2 -x {6.0 1.0 0 ------- null}
h -t 1.01187428571429 -s 5 -d 3 -p ack -e 40 -c 2 -i 2 -a 2 -x {6.0 1.0 -1 ------- null}
r -t 1.01433142857143 -s 5 -d 3 -p ack -e 40 -c 2 -i 2 -a 2 -x {6.0 1.0 0 ------- null}
+ -t 1.01433142857143 -s 3 -d 2 -p ack -e 40 -c 2 -i 2 -a 2 -x {6.0 1.0 0 ------- null}
- -t 1.01433142857143 -s 3 -d 2 -p ack -e 40 -c 2 -i 2 -a 2 -x {6.0 1.0 0 ------- null}
h -t 1.01433142857143 -s 3 -d 2 -p ack -e 40 -c 2 -i 2 -a 2 -x {6.0 1.0 -1 ------- null}
r -t 1.01678857142857 -s 3 -d 2 -p ack -e 40 -c 2 -i 2 -a 2 -x {6.0 1.0 0 ------- null}
+ -t 1.01678857142857 -s 2 -d 1 -p ack -e 40 -c 2 -i 2 -a 2 -x {6.0 1.0 0 ------- null}
- -t 1.01678857142857 -s 2 -d 1 -p ack -e 40 -c 2 -i 2 -a 2 -x {6.0 1.0 0 ------- null}
h -t 1.01678857142857 -s 2 -d 1 -p ack -e 40 -c 2 -i 2 -a 2 -x {6.0 1.0 -1 ------- null}
r -t 1.01910857142857 -s 2 -d 1 -p ack -e 40 -c 2 -i 2 -a 2 -x {6.0 1.0 0 ------- null}
+ -t 1.01910857142857 -s 1 -d 2 -p tcp -e 1040 -c 2 -i 3 -a 2 -x {1.0 6.0 2 ------- null}
- -t 1.01910857142857 -s 1 -d 2 -p tcp -e 1040 -c 2 -i 3 -a 2 -x {1.0 6.0 2 ------- null}
h -t 1.01910857142857 -s 1 -d 2 -p tcp -e 1040 -c 2 -i 3 -a 2 -x {1.0 6.0 -1 ------- null}
+ -t 1.01910857142857 -s 1 -d 2 -p tcp -e 1040 -c 2 -i 4 -a 2 -x {1.0 6.0 3 ------- null}
r -t 1.02452571428571 -s 2 -d 3 -p tcp -e 1040 -c 2 -i 1 -a 2 -x {1.0 6.0 1 ------- null}
+ -t 1.02452571428571 -s 3 -d 5 -p tcp -e 1040 -c 2 -i 1 -a 2 -x {1.0 6.0 1 ------- null}
- -t 1.02452571428571 -s 3 -d 5 -p tcp -e 1040 -c 2 -i 1 -a 2 -x {1.0 6.0 1 ------- null}
h -t 1.02452571428571 -s 3 -d 5 -p tcp -e 1040 -c 2 -i 1 -a 2 -x {1.0 6.0 -1 ------- null}
- -t 1.02742857142857 -s 1 -d 2 -p tcp -e 1040 -c 2 -i 4 -a 2 -x {1.0 6.0 3 ------- null}
h -t 1.02742857142857 -s 1 -d 2 -p tcp -e 1040 -c 2 -i 4 -a 2 -x {1.0 6.0 -1 ------- null}
r -t 1.02942857142857 -s 1 -d 2 -p tcp -e 1040 -c 2 -i 3 -a 2 -x {1.0 6.0 2 ------- null}
+ -t 1.02942857142857 -s 2 -d 3 -p tcp -e 1040 -c 2 -i 3 -a 2 -x {1.0 6.0 2 ------- null}
- -t 1.02942857142857 -s 2 -d 3 -p tcp -e 1040 -c 2 -i 3 -a 2 -x {1.0 6.0 2 ------- null}
h -t 1.02942857142857 -s 2 -d 3 -p tcp -e 1040 -c 2 -i 3 -a 2 -x {1.0 6.0 -1 ------- null}
r -t 1.03774857142857 -s 1 -d 2 -p tcp -e 1040 -c 2 -i 4 -a 2 -x {1.0 6.0 3 ------- null}
+ -t 1.03774857142857 -s 2 -d 3 -p tcp -e 1040 -c 2 -i 4 -a 2 -x {1.0 6.0 3 ------- null}
r -t 1.03841142857143 -s 3 -d 5 -p tcp -e 1040 -c 2 -i 1 -a 2 -x {1.0 6.0 1 ------- null}
+ -t 1.03841142857143 -s 5 -d 6 -p tcp -e 1040 -c 2 -i 1 -a 2 -x {1.0 6.0 1 ------- null}
- -t 1.03841142857143 -s 5 -d 6 -p tcp -e 1040 -c 2 -i 1 -a 2 -x {1.0 6.0 1 ------- null}
h -t 1.03841142857143 -s 5 -d 6 -p tcp -e 1040 -c 2 -i 1 -a 2 -x {1.0 6.0 -1 ------- null}
- -t 1.04131428571429 -s 2 -d 3 -p tcp -e 1040 -c 2 -i 4 -a 2 -x {1.0 6.0 3 ------- null}
h -t 1.04131428571429 -s 2 -d 3 -p tcp -e 1040 -c 2 -i 4 -a 2 -x {1.0 6.0 -1 ------- null}
r -t 1.04331428571429 -s 2 -d 3 -p tcp -e 1040 -c 2 -i 3 -a 2 -x {1.0 6.0 2 ------- null}
+ -t 1.04331428571429 -s 3 -d 5 -p tcp -e 1040 -c 2 -i 3 -a 2 -x {1.0 6.0 2 ------- null}
- -t 1.04331428571429 -s 3 -d 5 -p tcp -e 1040 -c 2 -i 3 -a 2 -x {1.0 6.0 2 ------- null}
h -t 1.04331428571429 -s 3 -d 5 -p tcp -e 1040 -c 2 -i 3 -a 2 -x {1.0 6.0 -1 ------- null}
r -t 1.04873142857143 -s 5 -d 6 -p tcp -e 1040 -c 2 -i 1 -a 2 -x {1.0 6.0 1 ------- null}
+ -t 1.04873142857143 -s 6 -d 5 -p ack -e 40 -c 2 -i 5 -a 2 -x {6.0 1.0 1 ------- null}
- -t 1.04873142857143 -s 6 -d 5 -p ack -e 40 -c 2 -i 5 -a 2 -x {6.0 1.0 1 ------- null}
h -t 1.04873142857143 -s 6 -d 5 -p ack -e 40 -c 2 -i 5 -a 2 -x {6.0 1.0 -1 ------- null}
r -t 1.05105142857143 -s 6 -d 5 -p ack -e 40 -c 2 -i 5 -a 2 -x {6.0 1.0 1 ------- null}
+ -t 1.05105142857143 -s 5 -d 3 -p ack -e 40 -c 2 -i 5 -a 2 -x {6.0 1.0 1 ------- null}
- -t 1.05105142857143 -s 5 -d 3 -p ack -e 40 -c 2 -i 5 -a 2 -x {6.0 1.0 1 ------- null}
h -t 1.05105142857143 -s 5 -d 3 -p ack -e 40 -c 2 -i 5 -a 2 -x {6.0 1.0 -1 ------- null}
r -t 1.05350857142857 -s 5 -d 3 -p ack -e 40 -c 2 -i 5 -a 2 -x {6.0 1.0 1 ------- null}
+ -t 1.05350857142857 -s 3 -d 2 -p ack -e 40 -c 2 -i 5 -a 2 -x {6.0 1.0 1 ------- null}
- -t 1.05350857142857 -s 3 -d 2 -p ack -e 40 -c 2 -i 5 -a 2 -x {6.0 1.0 1 ------- null}
h -t 1.05350857142857 -s 3 -d 2 -p ack -e 40 -c 2 -i 5 -a 2 -x {6.0 1.0 -1 ------- null}
r -t 1.0552 -s 2 -d 3 -p tcp -e 1040 -c 2 -i 4 -a 2 -x {1.0 6.0 3 ------- null}
+ -t 1.0552 -s 3 -d 5 -p tcp -e 1040 -c 2 -i 4 -a 2 -x {1.0 6.0 3 ------- null}
- -t 1.0552 -s 3 -d 5 -p tcp -e 1040 -c 2 -i 4 -a 2 -x {1.0 6.0 3 ------- null}
h -t 1.0552 -s 3 -d 5 -p tcp -e 1040 -c 2 -i 4 -a 2 -x {1.0 6.0 -1 ------- null}
r -t 1.05596571428571 -s 3 -d 2 -p ack -e 40 -c 2 -i 5 -a 2 -x {6.0 1.0 1 ------- null}
+ -t 1.05596571428571 -s 2 -d 1 -p ack -e 40 -c 2 -i 5 -a 2 -x {6.0 1.0 1 ------- null}
- -t 1.05596571428571 -s 2 -d 1 -p ack -e 40 -c 2 -i 5 -a 2 -x {6.0 1.0 1 ------- null}
h -t 1.05596571428571 -s 2 -d 1 -p ack -e 40 -c 2 -i 5 -a 2 -x {6.0 1.0 -1 ------- null}
r -t 1.0572 -s 3 -d 5 -p tcp -e 1040 -c 2 -i 3 -a 2 -x {1.0 6.0 2 ------- null}
+ -t 1.0572 -s 5 -d 6 -p tcp -e 1040 -c 2 -i 3 -a 2 -x {1.0 6.0 2 ------- null}
- -t 1.0572 -s 5 -d 6 -p tcp -e 1040 -c 2 -i 3 -a 2 -x {1.0 6.0 2 ------- null}
h -t 1.0572 -s 5 -d 6 -p tcp -e 1040 -c 2 -i 3 -a 2 -x {1.0 6.0 -1 ------- null}
r -t 1.05828571428571 -s 2 -d 1 -p ack -e 40 -c 2 -i 5 -a 2 -x {6.0 1.0 1 ------- null}
+ -t 1.05828571428571 -s 1 -d 2 -p tcp -e 1040 -c 2 -i 6 -a 2 -x {1.0 6.0 4 ------- null}
- -t 1.05828571428571 -s 1 -d 2 -p tcp -e 1040 -c 2 -i 6 -a 2 -x {1.0 6.0 4 ------- null}
h -t 1.05828571428571 -s 1 -d 2 -p tcp -e 1040 -c 2 -i 6 -a 2 -x {1.0 6.0 -1 ------- null}
+ -t 1.05828571428571 -s 1 -d 2 -p tcp -e 1040 -c 2 -i 7 -a 2 -x {1.0 6.0 5 ------- null}
- -t 1.06660571428572 -s 1 -d 2 -p tcp -e 1040 -c 2 -i 7 -a 2 -x {1.0 6.0 5 ------- null}
h -t 1.06660571428572 -s 1 -d 2 -p tcp -e 1040 -c 2 -i 7 -a 2 -x {1.0 6.0 -1 ------- null}
r -t 1.06752 -s 5 -d 6 -p tcp -e 1040 -c 2 -i 3 -a 2 -x {1.0 6.0 2 ------- null}
+ -t 1.06752 -s 6 -d 5 -p ack -e 40 -c 2 -i 8 -a 2 -x {6.0 1.0 2 ------- null}
- -t 1.06752 -s 6 -d 5 -p ack -e 40 -c 2 -i 8 -a 2 -x {6.0 1.0 2 ------- null}
h -t 1.06752 -s 6 -d 5 -p ack -e 40 -c 2 -i 8 -a 2 -x {6.0 1.0 -1 ------- null}
r -t 1.06860571428572 -s 1 -d 2 -p tcp -e 1040 -c 2 -i 6 -a 2 -x {1.0 6.0 4 ------- null}
+ -t 1.06860571428572 -s 2 -d 3 -p tcp -e 1040 -c 2 -i 6 -a 2 -x {1.0 6.0 4 ------- null}
- -t 1.06860571428572 -s 2 -d 3 -p tcp -e 1040 -c 2 -i 6 -a 2 -x {1.0 6.0 4 ------- null}
h -t 1.06860571428572 -s 2 -d 3 -p tcp -e 1040 -c 2 -i 6 -a 2 -x {1.0 6.0 -1 ------- null}
r -t 1.06908571428572 -s 3 -d 5 -p tcp -e 1040 -c 2 -i 4 -a 2 -x {1.0 6.0 3 ------- null}
+ -t 1.06908571428572 -s 5 -d 6 -p tcp -e 1040 -c 2 -i 4 -a 2 -x {1.0 6.0 3 ------- null}
- -t 1.06908571428572 -s 5 -d 6 -p tcp -e 1040 -c 2 -i 4 -a 2 -x {1.0 6.0 3 ------- null}
h -t 1.06908571428572 -s 5 -d 6 -p tcp -e 1040 -c 2 -i 4 -a 2 -x {1.0 6.0 -1 ------- null}
r -t 1.06984 -s 6 -d 5 -p ack -e 40 -c 2 -i 8 -a 2 -x {6.0 1.0 2 ------- null}
+ -t 1.06984 -s 5 -d 3 -p ack -e 40 -c 2 -i 8 -a 2 -x {6.0 1.0 2 ------- null}
- -t 1.06984 -s 5 -d 3 -p ack -e 40 -c 2 -i 8 -a 2 -x {6.0 1.0 2 ------- null}
h -t 1.06984 -s 5 -d 3 -p ack -e 40 -c 2 -i 8 -a 2 -x {6.0 1.0 -1 ------- null}
r -t 1.07229714285714 -s 5 -d 3 -p ack -e 40 -c 2 -i 8 -a 2 -x {6.0 1.0 2 ------- null}
+ -t 1.07229714285714 -s 3 -d 2 -p ack -e 40 -c 2 -i 8 -a 2 -x {6.0 1.0 2 ------- null}
- -t 1.07229714285714 -s 3 -d 2 -p ack -e 40 -c 2 -i 8 -a 2 -x {6.0 1.0 2 ------- null}
h -t 1.07229714285714 -s 3 -d 2 -p ack -e 40 -c 2 -i 8 -a 2 -x {6.0 1.0 -1 ------- null}
r -t 1.07475428571429 -s 3 -d 2 -p ack -e 40 -c 2 -i 8 -a 2 -x {6.0 1.0 2 ------- null}
+ -t 1.07475428571429 -s 2 -d 1 -p ack -e 40 -c 2 -i 8 -a 2 -x {6.0 1.0 2 ------- null}
- -t 1.07475428571429 -s 2 -d 1 -p ack -e 40 -c 2 -i 8 -a 2 -x {6.0 1.0 2 ------- null}
h -t 1.07475428571429 -s 2 -d 1 -p ack -e 40 -c 2 -i 8 -a 2 -x {6.0 1.0 -1 ------- null}
r -t 1.07692571428572 -s 1 -d 2 -p tcp -e 1040 -c 2 -i 7 -a 2 -x {1.0 6.0 5 ------- null}
+ -t 1.07692571428572 -s 2 -d 3 -p tcp -e 1040 -c 2 -i 7 -a 2 -x {1.0 6.0 5 ------- null}
r -t 1.07707428571429 -s 2 -d 1 -p ack -e 40 -c 2 -i 8 -a 2 -x {6.0 1.0 2 ------- null}
+ -t 1.07707428571429 -s 1 -d 2 -p tcp -e 1040 -c 2 -i 9 -a 2 -x {1.0 6.0 6 ------- null}
- -t 1.07707428571429 -s 1 -d 2 -p tcp -e 1040 -c 2 -i 9 -a 2 -x {1.0 6.0 6 ------- null}
h -t 1.07707428571429 -s 1 -d 2 -p tcp -e 1040 -c 2 -i 9 -a 2 -x {1.0 6.0 -1 ------- null}
+ -t 1.07707428571429 -s 1 -d 2 -p tcp -e 1040 -c 2 -i 10 -a 2 -x {1.0 6.0 7 ------- null}
r -t 1.07940571428572 -s 5 -d 6 -p tcp -e 1040 -c 2 -i 4 -a 2 -x {1.0 6.0 3 ------- null}
+ -t 1.07940571428572 -s 6 -d 5 -p ack -e 40 -c 2 -i 11 -a 2 -x {6.0 1.0 3 ------- null}
- -t 1.07940571428572 -s 6 -d 5 -p ack -e 40 -c 2 -i 11 -a 2 -x {6.0 1.0 3 ------- null}
h -t 1.07940571428572 -s 6 -d 5 -p ack -e 40 -c 2 -i 11 -a 2 -x {6.0 1.0 -1 ------- null}
- -t 1.08049142857143 -s 2 -d 3 -p tcp -e 1040 -c 2 -i 7 -a 2 -x {1.0 6.0 5 ------- null}
h -t 1.08049142857143 -s 2 -d 3 -p tcp -e 1040 -c 2 -i 7 -a 2 -x {1.0 6.0 -1 ------- null}
r -t 1.08172571428572 -s 6 -d 5 -p ack -e 40 -c 2 -i 11 -a 2 -x {6.0 1.0 3 ------- null}
+ -t 1.08172571428572 -s 5 -d 3 -p ack -e 40 -c 2 -i 11 -a 2 -x {6.0 1.0 3 ------- null}
- -t 1.08172571428572 -s 5 -d 3 -p ack -e 40 -c 2 -i 11 -a 2 -x {6.0 1.0 3 ------- null}
h -t 1.08172571428572 -s 5 -d 3 -p ack -e 40 -c 2 -i 11 -a 2 -x {6.0 1.0 -1 ------- null}
r -t 1.08249142857143 -s 2 -d 3 -p tcp -e 1040 -c 2 -i 6 -a 2 -x {1.0 6.0 4 ------- null}
+ -t 1.08249142857143 -s 3 -d 5 -p tcp -e 1040 -c 2 -i 6 -a 2 -x {1.0 6.0 4 ------- null}
- -t 1.08249142857143 -s 3 -d 5 -p tcp -e 1040 -c 2 -i 6 -a 2 -x {1.0 6.0 4 ------- null}
h -t 1.08249142857143 -s 3 -d 5 -p tcp -e 1040 -c 2 -i 6 -a 2 -x {1.0 6.0 -1 ------- null}
r -t 1.08418285714286 -s 5 -d 3 -p ack -e 40 -c 2 -i 11 -a 2 -x {6.0 1.0 3 ------- null}
+ -t 1.08418285714286 -s 3 -d 2 -p ack -e 40 -c 2 -i 11 -a 2 -x {6.0 1.0 3 ------- null}
- -t 1.08418285714286 -s 3 -d 2 -p ack -e 40 -c 2 -i 11 -a 2 -x {6.0 1.0 3 ------- null}
h -t 1.08418285714286 -s 3 -d 2 -p ack -e 40 -c 2 -i 11 -a 2 -x {6.0 1.0 -1 ------- null}
- -t 1.08539428571429 -s 1 -d 2 -p tcp -e 1040 -c 2 -i 10 -a 2 -x {1.0 6.0 7 ------- null}
h -t 1.08539428571429 -s 1 -d 2 -p tcp -e 1040 -c 2 -i 10 -a 2 -x {1.0 6.0 -1 ------- null}
r -t 1.08664 -s 3 -d 2 -p ack -e 40 -c 2 -i 11 -a 2 -x {6.0 1.0 3 ------- null}
+ -t 1.08664 -s 2 -d 1 -p ack -e 40 -c 2 -i 11 -a 2 -x {6.0 1.0 3 ------- null}
- -t 1.08664 -s 2 -d 1 -p ack -e 40 -c 2 -i 11 -a 2 -x {6.0 1.0 3 ------- null}
h -t 1.08664 -s 2 -d 1 -p ack -e 40 -c 2 -i 11 -a 2 -x {6.0 1.0 -1 ------- null}
r -t 1.08739428571429 -s 1 -d 2 -p tcp -e 1040 -c 2 -i 9 -a 2 -x {1.0 6.0 6 ------- null}
+ -t 1.08739428571429 -s 2 -d 3 -p tcp -e 1040 -c 2 -i 9 -a 2 -x {1.0 6.0 6 ------- null}
r -t 1.08896 -s 2 -d 1 -p ack -e 40 -c 2 -i 11 -a 2 -x {6.0 1.0 3 ------- null}
+ -t 1.08896 -s 1 -d 2 -p tcp -e 1040 -c 2 -i 12 -a 2 -x {1.0 6.0 8 ------- null}
+ -t 1.08896 -s 1 -d 2 -p tcp -e 1040 -c 2 -i 13 -a 2 -x {1.0 6.0 9 ------- null}
- -t 1.09237714285714 -s 2 -d 3 -p tcp -e 1040 -c 2 -i 9 -a 2 -x {1.0 6.0 6 ------- null}
h -t 1.09237714285714 -s 2 -d 3 -p tcp -e 1040 -c 2 -i 9 -a 2 -x {1.0 6.0 -1 ------- null}
- -t 1.09371428571429 -s 1 -d 2 -p tcp -e 1040 -c 2 -i 12 -a 2 -x {1.0 6.0 8 ------- null}
h -t 1.09371428571429 -s 1 -d 2 -p tcp -e 1040 -c 2 -i 12 -a 2 -x {1.0 6.0 -1 ------- null}
r -t 1.09437714285714 -s 2 -d 3 -p tcp -e 1040 -c 2 -i 7 -a 2 -x {1.0 6.0 5 ------- null}
+ -t 1.09437714285714 -s 3 -d 5 -p tcp -e 1040 -c 2 -i 7 -a 2 -x {1.0 6.0 5 ------- null}
- -t 1.09437714285714 -s 3 -d 5 -p tcp -e 1040 -c 2 -i 7 -a 2 -x {1.0 6.0 5 ------- null}
h -t 1.09437714285714 -s 3 -d 5 -p tcp -e 1040 -c 2 -i 7 -a 2 -x {1.0 6.0 -1 ------- null}
r -t 1.09571428571429 -s 1 -d 2 -p tcp -e 1040 -c 2 -i 10 -a 2 -x {1.0 6.0 7 ------- null}
+ -t 1.09571428571429 -s 2 -d 3 -p tcp -e 1040 -c 2 -i 10 -a 2 -x {1.0 6.0 7 ------- null}
r -t 1.09637714285714 -s 3 -d 5 -p tcp -e 1040 -c 2 -i 6 -a 2 -x {1.0 6.0 4 ------- null}
+ -t 1.09637714285714 -s 5 -d 6 -p tcp -e 1040 -c 2 -i 6 -a 2 -x {1.0 6.0 4 ------- null}
- -t 1.09637714285714 -s 5 -d 6 -p tcp -e 1040 -c 2 -i 6 -a 2 -x {1.0 6.0 4 ------- null}
h -t 1.09637714285714 -s 5 -d 6 -p tcp -e 1040 -c 2 -i 6 -a 2 -x {1.0 6.0 -1 ------- null}
- -t 1.10203428571429 -s 1 -d 2 -p tcp -e 1040 -c 2 -i 13 -a 2 -x {1.0 6.0 9 ------- null}
h -t 1.10203428571429 -s 1 -d 2 -p tcp -e 1040 -c 2 -i 13 -a 2 -x {1.0 6.0 -1 ------- null}
r -t 1.10403428571429 -s 1 -d 2 -p tcp -e 1040 -c 2 -i 12 -a 2 -x {1.0 6.0 8 ------- null}
+ -t 1.10403428571429 -s 2 -d 3 -p tcp -e 1040 -c 2 -i 12 -a 2 -x {1.0 6.0 8 ------- null}
- -t 1.10426285714286 -s 2 -d 3 -p tcp -e 1040 -c 2 -i 10 -a 2 -x {1.0 6.0 7 ------- null}
h -t 1.10426285714286 -s 2 -d 3 -p tcp -e 1040 -c 2 -i 10 -a 2 -x {1.0 6.0 -1 ------- null}
r -t 1.10626285714286 -s 2 -d 3 -p tcp -e 1040 -c 2 -i 9 -a 2 -x {1.0 6.0 6 ------- null}
+ -t 1.10626285714286 -s 3 -d 5 -p tcp -e 1040 -c 2 -i 9 -a 2 -x {1.0 6.0 6 ------- null}
- -t 1.10626285714286 -s 3 -d 5 -p tcp -e 1040 -c 2 -i 9 -a 2 -x {1.0 6.0 6 ------- null}
h -t 1.10626285714286 -s 3 -d 5 -p tcp -e 1040 -c 2 -i 9 -a 2 -x {1.0 6.0 -1 ------- null}
r -t 1.10669714285714 -s 5 -d 6 -p tcp -e 1040 -c 2 -i 6 -a 2 -x {1.0 6.0 4 ------- null}
+ -t 1.10669714285714 -s 6 -d 5 -p ack -e 40 -c 2 -i 14 -a 2 -x {6.0 1.0 4 ------- null}
- -t 1.10669714285714 -s 6 -d 5 -p ack -e 40 -c 2 -i 14 -a 2 -x {6.0 1.0 4 ------- null}
h -t 1.10669714285714 -s 6 -d 5 -p ack -e 40 -c 2 -i 14 -a 2 -x {6.0 1.0 -1 ------- null}
r -t 1.10826285714286 -s 3 -d 5 -p tcp -e 1040 -c 2 -i 7 -a 2 -x {1.0 6.0 5 ------- null}
+ -t 1.10826285714286 -s 5 -d 6 -p tcp -e 1040 -c 2 -i 7 -a 2 -x {1.0 6.0 5 ------- null}
- -t 1.10826285714286 -s 5 -d 6 -p tcp -e 1040 -c 2 -i 7 -a 2 -x {1.0 6.0 5 ------- null}
h -t 1.10826285714286 -s 5 -d 6 -p tcp -e 1040 -c 2 -i 7 -a 2 -x {1.0 6.0 -1 ------- null}
r -t 1.10901714285714 -s 6 -d 5 -p ack -e 40 -c 2 -i 14 -a 2 -x {6.0 1.0 4 ------- null}
+ -t 1.10901714285714 -s 5 -d 3 -p ack -e 40 -c 2 -i 14 -a 2 -x {6.0 1.0 4 ------- null}
- -t 1.10901714285714 -s 5 -d 3 -p ack -e 40 -c 2 -i 14 -a 2 -x {6.0 1.0 4 ------- null}
h -t 1.10901714285714 -s 5 -d 3 -p ack -e 40 -c 2 -i 14 -a 2 -x {6.0 1.0 -1 ------- null}
r -t 1.11147428571429 -s 5 -d 3 -p ack -e 40 -c 2 -i 14 -a 2 -x {6.0 1.0 4 ------- null}
+ -t 1.11147428571429 -s 3 -d 2 -p ack -e 40 -c 2 -i 14 -a 2 -x {6.0 1.0 4 ------- null}
- -t 1.11147428571429 -s 3 -d 2 -p ack -e 40 -c 2 -i 14 -a 2 -x {6.0 1.0 4 ------- null}
h -t 1.11147428571429 -s 3 -d 2 -p ack -e 40 -c 2 -i 14 -a 2 -x {6.0 1.0 -1 ------- null}
r -t 1.11235428571429 -s 1 -d 2 -p tcp -e 1040 -c 2 -i 13 -a 2 -x {1.0 6.0 9 ------- null}
+ -t 1.11235428571429 -s 2 -d 3 -p tcp -e 1040 -c 2 -i 13 -a 2 -x {1.0 6.0 9 ------- null}
r -t 1.11393142857143 -s 3 -d 2 -p ack -e 40 -c 2 -i 14 -a 2 -x {6.0 1.0 4 ------- null}
+ -t 1.11393142857143 -s 2 -d 1 -p ack -e 40 -c 2 -i 14 -a 2 -x {6.0 1.0 4 ------- null}
- -t 1.11393142857143 -s 2 -d 1 -p ack -e 40 -c 2 -i 14 -a 2 -x {6.0 1.0 4 ------- null}
h -t 1.11393142857143 -s 2 -d 1 -p ack -e 40 -c 2 -i 14 -a 2 -x {6.0 1.0 -1 ------- null}
- -t 1.11614857142857 -s 2 -d 3 -p tcp -e 1040 -c 2 -i 12 -a 2 -x {1.0 6.0 8 ------- null}
h -t 1.11614857142857 -s 2 -d 3 -p tcp -e 1040 -c 2 -i 12 -a 2 -x {1.0 6.0 -1 ------- null}
r -t 1.11625142857143 -s 2 -d 1 -p ack -e 40 -c 2 -i 14 -a 2 -x {6.0 1.0 4 ------- null}
+ -t 1.11625142857143 -s 1 -d 2 -p tcp -e 1040 -c 2 -i 15 -a 2 -x {1.0 6.0 10 ------- null}
- -t 1.11625142857143 -s 1 -d 2 -p tcp -e 1040 -c 2 -i 15 -a 2 -x {1.0 6.0 10 ------- null}
h -t 1.11625142857143 -s 1 -d 2 -p tcp -e 1040 -c 2 -i 15 -a 2 -x {1.0 6.0 -1 ------- null}
+ -t 1.11625142857143 -s 1 -d 2 -p tcp -e 1040 -c 2 -i 16 -a 2 -x {1.0 6.0 11 ------- null}
r -t 1.11814857142857 -s 2 -d 3 -p tcp -e 1040 -c 2 -i 10 -a 2 -x {1.0 6.0 7 ------- null}
+ -t 1.11814857142857 -s 3 -d 5 -p tcp -e 1040 -c 2 -i 10 -a 2 -x {1.0 6.0 7 ------- null}
- -t 1.11814857142857 -s 3 -d 5 -p tcp -e 1040 -c 2 -i 10 -a 2 -x {1.0 6.0 7 ------- null}
h -t 1.11814857142857 -s 3 -d 5 -p tcp -e 1040 -c 2 -i 10 -a 2 -x {1.0 6.0 -1 ------- null}
r -t 1.11858285714286 -s 5 -d 6 -p tcp -e 1040 -c 2 -i 7 -a 2 -x {1.0 6.0 5 ------- null}
+ -t 1.11858285714286 -s 6 -d 5 -p ack -e 40 -c 2 -i 17 -a 2 -x {6.0 1.0 5 ------- null}
- -t 1.11858285714286 -s 6 -d 5 -p ack -e 40 -c 2 -i 17 -a 2 -x {6.0 1.0 5 ------- null}
h -t 1.11858285714286 -s 6 -d 5 -p ack -e 40 -c 2 -i 17 -a 2 -x {6.0 1.0 -1 ------- null}
r -t 1.12014857142857 -s 3 -d 5 -p tcp -e 1040 -c 2 -i 9 -a 2 -x {1.0 6.0 6 ------- null}
+ -t 1.12014857142857 -s 5 -d 6 -p tcp -e 1040 -c 2 -i 9 -a 2 -x {1.0 6.0 6 ------- null}
- -t 1.12014857142857 -s 5 -d 6 -p tcp -e 1040 -c 2 -i 9 -a 2 -x {1.0 6.0 6 ------- null}
h -t 1.12014857142857 -s 5 -d 6 -p tcp -e 1040 -c 2 -i 9 -a 2 -x {1.0 6.0 -1 ------- null}
r -t 1.12090285714286 -s 6 -d 5 -p ack -e 40 -c 2 -i 17 -a 2 -x {6.0 1.0 5 ------- null}
+ -t 1.12090285714286 -s 5 -d 3 -p ack -e 40 -c 2 -i 17 -a 2 -x {6.0 1.0 5 ------- null}
- -t 1.12090285714286 -s 5 -d 3 -p ack -e 40 -c 2 -i 17 -a 2 -x {6.0 1.0 5 ------- null}
h -t 1.12090285714286 -s 5 -d 3 -p ack -e 40 -c 2 -i 17 -a 2 -x {6.0 1.0 -1 ------- null}
r -t 1.12336 -s 5 -d 3 -p ack -e 40 -c 2 -i 17 -a 2 -x {6.0 1.0 5 ------- null}
+ -t 1.12336 -s 3 -d 2 -p ack -e 40 -c 2 -i 17 -a 2 -x {6.0 1.0 5 ------- null}
- -t 1.12336 -s 3 -d 2 -p ack -e 40 -c 2 -i 17 -a 2 -x {6.0 1.0 5 ------- null}
h -t 1.12336 -s 3 -d 2 -p ack -e 40 -c 2 -i 17 -a 2 -x {6.0 1.0 -1 ------- null}
- -t 1.12457142857143 -s 1 -d 2 -p tcp -e 1040 -c 2 -i 16 -a 2 -x {1.0 6.0 11 ------- null}
h -t 1.12457142857143 -s 1 -d 2 -p tcp -e 1040 -c 2 -i 16 -a 2 -x {1.0 6.0 -1 ------- null}
r -t 1.12581714285714 -s 3 -d 2 -p ack -e 40 -c 2 -i 17 -a 2 -x {6.0 1.0 5 ------- null}
+ -t 1.12581714285714 -s 2 -d 1 -p ack -e 40 -c 2 -i 17 -a 2 -x {6.0 1.0 5 ------- null}
- -t 1.12581714285714 -s 2 -d 1 -p ack -e 40 -c 2 -i 17 -a 2 -x {6.0 1.0 5 ------- null}
h -t 1.12581714285714 -s 2 -d 1 -p ack -e 40 -c 2 -i 17 -a 2 -x {6.0 1.0 -1 ------- null}
r -t 1.12657142857143 -s 1 -d 2 -p tcp -e 1040 -c 2 -i 15 -a 2 -x {1.0 6.0 10 ------- null}
+ -t 1.12657142857143 -s 2 -d 3 -p tcp -e 1040 -c 2 -i 15 -a 2 -x {1.0 6.0 10 ------- null}
- -t 1.12803428571429 -s 2 -d 3 -p tcp -e 1040 -c 2 -i 13 -a 2 -x {1.0 6.0 9 ------- null}
h -t 1.12803428571429 -s 2 -d 3 -p tcp -e 1040 -c 2 -i 13 -a 2 -x {1.0 6.0 -1 ------- null}
r -t 1.12813714285714 -s 2 -d 1 -p ack -e 40 -c 2 -i 17 -a 2 -x {6.0 1.0 5 ------- null}
+ -t 1.12813714285714 -s 1 -d 2 -p tcp -e 1040 -c 2 -i 18 -a 2 -x {1.0 6.0 12 ------- null}
+ -t 1.12813714285714 -s 1 -d 2 -p tcp -e 1040 -c 2 -i 19 -a 2 -x {1.0 6.0 13 ------- null}
r -t 1.13003428571429 -s 2 -d 3 -p tcp -e 1040 -c 2 -i 12 -a 2 -x {1.0 6.0 8 ------- null}
+ -t 1.13003428571429 -s 3 -d 5 -p tcp -e 1040 -c 2 -i 12 -a 2 -x {1.0 6.0 8 ------- null}
- -t 1.13003428571429 -s 3 -d 5 -p tcp -e 1040 -c 2 -i 12 -a 2 -x {1.0 6.0 8 ------- null}
h -t 1.13003428571429 -s 3 -d 5 -p tcp -e 1040 -c 2 -i 12 -a 2 -x {1.0 6.0 -1 ------- null}
r -t 1.13046857142857 -s 5 -d 6 -p tcp -e 1040 -c 2 -i 9 -a 2 -x {1.0 6.0 6 ------- null}
+ -t 1.13046857142857 -s 6 -d 5 -p ack -e 40 -c 2 -i 20 -a 2 -x {6.0 1.0 6 ------- null}
- -t 1.13046857142857 -s 6 -d 5 -p ack -e 40 -c 2 -i 20 -a 2 -x {6.0 1.0 6 ------- null}
h -t 1.13046857142857 -s 6 -d 5 -p ack -e 40 -c 2 -i 20 -a 2 -x {6.0 1.0 -1 ------- null}
r -t 1.13203428571429 -s 3 -d 5 -p tcp -e 1040 -c 2 -i 10 -a 2 -x {1.0 6.0 7 ------- null}
+ -t 1.13203428571429 -s 5 -d 6 -p tcp -e 1040 -c 2 -i 10 -a 2 -x {1.0 6.0 7 ------- null}
- -t 1.13203428571429 -s 5 -d 6 -p tcp -e 1040 -c 2 -i 10 -a 2 -x {1.0 6.0 7 ------- null}
h -t 1.13203428571429 -s 5 -d 6 -p tcp -e 1040 -c 2 -i 10 -a 2 -x {1.0 6.0 -1 ------- null}
r -t 1.13278857142857 -s 6 -d 5 -p ack -e 40 -c 2 -i 20 -a 2 -x {6.0 1.0 6 ------- null}
+ -t 1.13278857142857 -s 5 -d 3 -p ack -e 40 -c 2 -i 20 -a 2 -x {6.0 1.0 6 ------- null}
- -t 1.13278857142857 -s 5 -d 3 -p ack -e 40 -c 2 -i 20 -a 2 -x {6.0 1.0 6 ------- null}
h -t 1.13278857142857 -s 5 -d 3 -p ack -e 40 -c 2 -i 20 -a 2 -x {6.0 1.0 -1 ------- null}
- -t 1.13289142857143 -s 1 -d 2 -p tcp -e 1040 -c 2 -i 18 -a 2 -x {1.0 6.0 12 ------- null}
h -t 1.13289142857143 -s 1 -d 2 -p tcp -e 1040 -c 2 -i 18 -a 2 -x {1.0 6.0 -1 ------- null}
r -t 1.13489142857143 -s 1 -d 2 -p tcp -e 1040 -c 2 -i 16 -a 2 -x {1.0 6.0 11 ------- null}
+ -t 1.13489142857143 -s 2 -d 3 -p tcp -e 1040 -c 2 -i 16 -a 2 -x {1.0 6.0 11 ------- null}
r -t 1.13524571428572 -s 5 -d 3 -p ack -e 40 -c 2 -i 20 -a 2 -x {6.0 1.0 6 ------- null}
+ -t 1.13524571428572 -s 3 -d 2 -p ack -e 40 -c 2 -i 20 -a 2 -x {6.0 1.0 6 ------- null}
- -t 1.13524571428572 -s 3 -d 2 -p ack -e 40 -c 2 -i 20 -a 2 -x {6.0 1.0 6 ------- null}
h -t 1.13524571428572 -s 3 -d 2 -p ack -e 40 -c 2 -i 20 -a 2 -x {6.0 1.0 -1 ------- null}
r -t 1.13770285714286 -s 3 -d 2 -p ack -e 40 -c 2 -i 20 -a 2 -x {6.0 1.0 6 ------- null}
+ -t 1.13770285714286 -s 2 -d 1 -p ack -e 40 -c 2 -i 20 -a 2 -x {6.0 1.0 6 ------- null}
- -t 1.13770285714286 -s 2 -d 1 -p ack -e 40 -c 2 -i 20 -a 2 -x {6.0 1.0 6 ------- null}
h -t 1.13770285714286 -s 2 -d 1 -p ack -e 40 -c 2 -i 20 -a 2 -x {6.0 1.0 -1 ------- null}
- -t 1.13992 -s 2 -d 3 -p tcp -e 1040 -c 2 -i 15 -a 2 -x {1.0 6.0 10 ------- null}
h -t 1.13992 -s 2 -d 3 -p tcp -e 1040 -c 2 -i 15 -a 2 -x {1.0 6.0 -1 ------- null}
r -t 1.14002285714286 -s 2 -d 1 -p ack -e 40 -c 2 -i 20 -a 2 -x {6.0 1.0 6 ------- null}
+ -t 1.14002285714286 -s 1 -d 2 -p tcp -e 1040 -c 2 -i 21 -a 2 -x {1.0 6.0 14 ------- null}
+ -t 1.14002285714286 -s 1 -d 2 -p tcp -e 1040 -c 2 -i 22 -a 2 -x {1.0 6.0 15 ------- null}
- -t 1.14121142857143 -s 1 -d 2 -p tcp -e 1040 -c 2 -i 19 -a 2 -x {1.0 6.0 13 ------- null}
h -t 1.14121142857143 -s 1 -d 2 -p tcp -e 1040 -c 2 -i 19 -a 2 -x {1.0 6.0 -1 ------- null}
r -t 1.14192 -s 2 -d 3 -p tcp -e 1040 -c 2 -i 13 -a 2 -x {1.0 6.0 9 ------- null}
+ -t 1.14192 -s 3 -d 5 -p tcp -e 1040 -c 2 -i 13 -a 2 -x {1.0 6.0 9 ------- null}
- -t 1.14192 -s 3 -d 5 -p tcp -e 1040 -c 2 -i 13 -a 2 -x {1.0 6.0 9 ------- null}
h -t 1.14192 -s 3 -d 5 -p tcp -e 1040 -c 2 -i 13 -a 2 -x {1.0 6.0 -1 ------- null}
r -t 1.14235428571429 -s 5 -d 6 -p tcp -e 1040 -c 2 -i 10 -a 2 -x {1.0 6.0 7 ------- null}
+ -t 1.14235428571429 -s 6 -d 5 -p ack -e 40 -c 2 -i 23 -a 2 -x {6.0 1.0 7 ------- null}
- -t 1.14235428571429 -s 6 -d 5 -p ack -e 40 -c 2 -i 23 -a 2 -x {6.0 1.0 7 ------- null}
h -t 1.14235428571429 -s 6 -d 5 -p ack -e 40 -c 2 -i 23 -a 2 -x {6.0 1.0 -1 ------- null}
r -t 1.14321142857143 -s 1 -d 2 -p tcp -e 1040 -c 2 -i 18 -a 2 -x {1.0 6.0 12 ------- null}
+ -t 1.14321142857143 -s 2 -d 3 -p tcp -e 1040 -c 2 -i 18 -a 2 -x {1.0 6.0 12 ------- null}
r -t 1.14392 -s 3 -d 5 -p tcp -e 1040 -c 2 -i 12 -a 2 -x {1.0 6.0 8 ------- null}
+ -t 1.14392 -s 5 -d 6 -p tcp -e 1040 -c 2 -i 12 -a 2 -x {1.0 6.0 8 ------- null}
- -t 1.14392 -s 5 -d 6 -p tcp -e 1040 -c 2 -i 12 -a 2 -x {1.0 6.0 8 ------- null}
h -t 1.14392 -s 5 -d 6 -p tcp -e 1040 -c 2 -i 12 -a 2 -x {1.0 6.0 -1 ------- null}
r -t 1.14467428571429 -s 6 -d 5 -p ack -e 40 -c 2 -i 23 -a 2 -x {6.0 1.0 7 ------- null}
+ -t 1.14467428571429 -s 5 -d 3 -p ack -e 40 -c 2 -i 23 -a 2 -x {6.0 1.0 7 ------- null}
- -t 1.14467428571429 -s 5 -d 3 -p ack -e 40 -c 2 -i 23 -a 2 -x {6.0 1.0 7 ------- null}
h -t 1.14467428571429 -s 5 -d 3 -p ack -e 40 -c 2 -i 23 -a 2 -x {6.0 1.0 -1 ------- null}
r -t 1.14713142857143 -s 5 -d 3 -p ack -e 40 -c 2 -i 23 -a 2 -x {6.0 1.0 7 ------- null}
+ -t 1.14713142857143 -s 3 -d 2 -p ack -e 40 -c 2 -i 23 -a 2 -x {6.0 1.0 7 ------- null}
- -t 1.14713142857143 -s 3 -d 2 -p ack -e 40 -c 2 -i 23 -a 2 -x {6.0 1.0 7 ------- null}
h -t 1.14713142857143 -s 3 -d 2 -p ack -e 40 -c 2 -i 23 -a 2 -x {6.0 1.0 -1 ------- null}
- -t 1.14953142857143 -s 1 -d 2 -p tcp -e 1040 -c 2 -i 21 -a 2 -x {1.0 6.0 14 ------- null}
h -t 1.14953142857143 -s 1 -d 2 -p tcp -e 1040 -c 2 -i 21 -a 2 -x {1.0 6.0 -1 ------- null}
r -t 1.14958857142857 -s 3 -d 2 -p ack -e 40 -c 2 -i 23 -a 2 -x {6.0 1.0 7 ------- null}
+ -t 1.14958857142857 -s 2 -d 1 -p ack -e 40 -c 2 -i 23 -a 2 -x {6.0 1.0 7 ------- null}
- -t 1.14958857142857 -s 2 -d 1 -p ack -e 40 -c 2 -i 23 -a 2 -x {6.0 1.0 7 ------- null}
h -t 1.14958857142857 -s 2 -d 1 -p ack -e 40 -c 2 -i 23 -a 2 -x {6.0 1.0 -1 ------- null}
r -t 1.15153142857143 -s 1 -d 2 -p tcp -e 1040 -c 2 -i 19 -a 2 -x {1.0 6.0 13 ------- null}
+ -t 1.15153142857143 -s 2 -d 3 -p tcp -e 1040 -c 2 -i 19 -a 2 -x {1.0 6.0 13 ------- null}
- -t 1.15180571428571 -s 2 -d 3 -p tcp -e 1040 -c 2 -i 16 -a 2 -x {1.0 6.0 11 ------- null}
h -t 1.15180571428571 -s 2 -d 3 -p tcp -e 1040 -c 2 -i 16 -a 2 -x {1.0 6.0 -1 ------- null}
r -t 1.15190857142857 -s 2 -d 1 -p ack -e 40 -c 2 -i 23 -a 2 -x {6.0 1.0 7 ------- null}
+ -t 1.15190857142857 -s 1 -d 2 -p tcp -e 1040 -c 2 -i 24 -a 2 -x {1.0 6.0 16 ------- null}
+ -t 1.15190857142857 -s 1 -d 2 -p tcp -e 1040 -c 2 -i 25 -a 2 -x {1.0 6.0 17 ------- null}
r -t 1.15380571428571 -s 2 -d 3 -p tcp -e 1040 -c 2 -i 15 -a 2 -x {1.0 6.0 10 ------- null}
+ -t 1.15380571428571 -s 3 -d 5 -p tcp -e 1040 -c 2 -i 15 -a 2 -x {1.0 6.0 10 ------- null}
- -t 1.15380571428571 -s 3 -d 5 -p tcp -e 1040 -c 2 -i 15 -a 2 -x {1.0 6.0 10 ------- null}
h -t 1.15380571428571 -s 3 -d 5 -p tcp -e 1040 -c 2 -i 15 -a 2 -x {1.0 6.0 -1 ------- null}
r -t 1.15424 -s 5 -d 6 -p tcp -e 1040 -c 2 -i 12 -a 2 -x {1.0 6.0 8 ------- null}
+ -t 1.15424 -s 6 -d 5 -p ack -e 40 -c 2 -i 26 -a 2 -x {6.0 1.0 8 ------- null}
- -t 1.15424 -s 6 -d 5 -p ack -e 40 -c 2 -i 26 -a 2 -x {6.0 1.0 8 ------- null}
h -t 1.15424 -s 6 -d 5 -p ack -e 40 -c 2 -i 26 -a 2 -x {6.0 1.0 -1 ------- null}
r -t 1.15580571428571 -s 3 -d 5 -p tcp -e 1040 -c 2 -i 13 -a 2 -x {1.0 6.0 9 ------- null}
+ -t 1.15580571428571 -s 5 -d 6 -p tcp -e 1040 -c 2 -i 13 -a 2 -x {1.0 6.0 9 ------- null}
- -t 1.15580571428571 -s 5 -d 6 -p tcp -e 1040 -c 2 -i 13 -a 2 -x {1.0 6.0 9 ------- null}
h -t 1.15580571428571 -s 5 -d 6 -p tcp -e 1040 -c 2 -i 13 -a 2 -x {1.0 6.0 -1 ------- null}
r -t 1.15656 -s 6 -d 5 -p ack -e 40 -c 2 -i 26 -a 2 -x {6.0 1.0 8 ------- null}
+ -t 1.15656 -s 5 -d 3 -p ack -e 40 -c 2 -i 26 -a 2 -x {6.0 1.0 8 ------- null}
- -t 1.15656 -s 5 -d 3 -p ack -e 40 -c 2 -i 26 -a 2 -x {6.0 1.0 8 ------- null}
h -t 1.15656 -s 5 -d 3 -p ack -e 40 -c 2 -i 26 -a 2 -x {6.0 1.0 -1 ------- null}