V -t * -v 1.0a5 -a 0
A -t * -n 1 -p 0 -o 0x7fffffff -c 30 -a 1
A -t * -h 1 -m 1073741823 -s 0
c -t * -i 1 -n Blue
c -t * -i 2 -n Red
c -t * -i 3 -n Green
n -t * -a 4 -s 4 -S UP -v circle -c black -i black
n -t * -a 0 -s 0 -S UP -v circle -c black -i black
n -t * -a 5 -s 5 -S UP -v circle -c black -i black
n -t * -a 1 -s 1 -S UP -v circle -c black -i black
n -t * -a 6 -s 6 -S UP -v circle -c black -i black
n -t * -a 2 -s 2 -S UP -v circle -c black -i black
n -t * -a 7 -s 7 -S UP -v circle -c black -i black
n -t * -a 3 -s 3 -S UP -v circle -c black -i black
l -t * -s 0 -d 2 -S UP -r 1000000 -D 0.002 -c black -o right-down
l -t * -s 1 -d 2 -S UP -r 1000000 -D 0.002 -c black -o right-up
l -t * -s 2 -d 3 -S UP -r 700000 -D 0.002 -c black -o right
l -t * -s 4 -d 3 -S UP -r 1000000 -D 0.002 -c black -o right-down
l -t * -s 3 -d 5 -S UP -r 700000 -D 0.002 -c black -o right
l -t * -s 5 -d 6 -S UP -r 1000000 -D 0.002 -c black -o right-up
l -t * -s 5 -d 7 -S UP -r 1000000 -D 0.002 -c black -o right-down
+ -t 1 -s 1 -d 2 -p tcp -e 40 -c 2 -i 0 -a 2 -x {1.0 6.0 0 ------- null}
- -t 1 -s 1 -d 2 -p tcp -e 40 -c 2 -i 0 -a 2 -x {1.0 6.0 0 ------- null}
h -t 1 -s 1 -d 2 -p tcp -e 40 -c 2 -i 0 -a 2 -x {1.0 6.0 -1 ------- null}
r -t 1.00232 -s 1 -d 2 -p tcp -e 40 -c 2 -i 0 -a 2 -x {1.0 6.0 0 ------- null}
+ -t 1.00232 -s 2 -d 3 -p tcp -e 40 -c 2 -i 0 -a 2 -x {1.0 6.0 0 ------- null}
- -t 1.00232 -s 2 -d 3 -p tcp -e 40 -c 2 -i 0 -a 2 -x {1.0 6.0 0 ------- null}
h -t 1.00232 -s 2 -d 3 -p tcp -e 40 -c 2 -i 0 -a 2 -x {1.0 6.0 -1 ------- null}
r -t 1.00477714285714 -s 2 -d 3 -p tcp -e 40 -c 2 -i 0 -a 2 -x {1.0 6.0 0 ------- null}
+ -t 1.00477714285714 -s 3 -d 5 -p tcp -e 40 -c 2 -i 0 -a 2 -x {1.0 6.0 0 ------- null}
- -t 1.00477714285714 -s 3 -d 5 -p tcp -e 40 -c 2 -i 0 -a 2 -x {1.0 6.0 0 ------- null}
h -t 1.00477714285714 -s 3 -d 5 -p tcp -e 40 -c 2 -i 0 -a 2 -x {1.0 6.0 -1 ------- null}
r -t 1.00723428571429 -s 3 -d 5 -p tcp -e 40 -c 2 -i 0 -a 2 -x {1.0 6.0 0 ------- null}
+ -t 1.00723428571429 -s 5 -d 6 -p tcp -e 40 -c 2 -i 0 -a 2 -x {1.0 6.0 0 ------- null}
- -t 1.00723428571429 -s 5 -d 6 -p tcp -e 40 -c 2 -i 0 -a 2 -x {1.0 6.0 0 ------- null}
h -t 1.00723428571429 -s 5 -d 6 -p tcp -e 40 -c 2 -i 0 -a 2 -x {1.0 6.0 -1 ------- null}
r -t 1.00955428571429 -s 5 -d 6 -p tcp -e 40 -c 2 -i 0 -a 2 -x {1.0 6.0 0 ------- null}
+ -t 1.00955428571429 -s 6 -d 5 -p ack -e 40 -c 2 -i 1 -a 2 -x {6.0 1.0 0 ------- null}
- -t 1.00955428571429 -s 6 -d 5 -p ack -e 40 -c 2 -i 1 -a 2 -x {6.0 1.0 0 ------- null}
h -t 1.00955428571429 -s 6 -d 5 -p ack -e 40 -c 2 -i 1 -a 2 -x {6.0 1.0 -1 ------- null}
r -t 1.01187428571429 -s 6 -d 5 -p ack -e 40 -c 2 -i 1 -a 2 -x {6.0 1.0 0 ------- null}
+ -t 1.01187428571429 -s 5 -d 3 -p ack -e 40 -c 2 -i 1 -a 2 -x {6.0 1.0 0 ------- null}
- -t 1.01187428571429 -s 5 -d 3 -p ack -e 40 -c 2 -i 1 -a 2 -x {6.0 1.0 0 ------- null}
h -t 1.01187428571429 -s 5 -d 3 -p ack -e 40 -c 2 -i 1 -a 2 -x {6.0 1.0 -1 ------- null}
r -t 1.01433142857143 -s 5 -d 3 -p ack -e 40 -c 2 -i 1 -a 2 -x {6.0 1.0 0 ------- null}
+ -t 1.01433142857143 -s 3 -d 2 -p ack -e 40 -c 2 -i 1 -a 2 -x {6.0 1.0 0 ------- null}
- -t 1.01433142857143 -s 3 -d 2 -p ack -e 40 -c 2 -i 1 -a 2 -x {6.0 1.0 0 ------- null}
h -t 1.01433142857143 -s 3 -d 2 -p ack -e 40 -c 2 -i 1 -a 2 -x {6.0 1.0 -1 ------- null}
r -t 1.01678857142857 -s 3 -d 2 -p ack -e 40 -c 2 -i 1 -a 2 -x {6.0 1.0 0 ------- null}
+ -t 1.01678857142857 -s 2 -d 1 -p ack -e 40 -c 2 -i 1 -a 2 -x {6.0 1.0 0 ------- null}
- -t 1.01678857142857 -s 2 -d 1 -p ack -e 40 -c 2 -i 1 -a 2 -x {6.0 1.0 0 ------- null}
h -t 1.01678857142857 -s 2 -d 1 -p ack -e 40 -c 2 -i 1 -a 2 -x {6.0 1.0 -1 ------- null}
r -t 1.01910857142857 -s 2 -d 1 -p ack -e 40 -c 2 -i 1 -a 2 -x {6.0 1.0 0 ------- null}
+ -t 1.01910857142857 -s 1 -d 2 -p tcp -e 1040 -c 2 -i 2 -a 2 -x {1.0 6.0 1 ------- null}
- -t 1.01910857142857 -s 1 -d 2 -p tcp -e 1040 -c 2 -i 2 -a 2 -x {1.0 6.0 1 ------- null}
h -t 1.01910857142857 -s 1 -d 2 -p tcp -e 1040 -c 2 -i 2 -a 2 -x {1.0 6.0 -1 ------- null}
+ -t 1.01910857142857 -s 1 -d 2 -p tcp -e 1040 -c 2 -i 3 -a 2 -x {1.0 6.0 2 ------- null}
- -t 1.02742857142857 -s 1 -d 2 -p tcp -e 1040 -c 2 -i 3 -a 2 -x {1.0 6.0 2 ------- null}
h -t 1.02742857142857 -s 1 -d 2 -p tcp -e 1040 -c 2 -i 3 -a 2 -x {1.0 6.0 -1 ------- null}
r -t 1.02942857142857 -s 1 -d 2 -p tcp -e 1040 -c 2 -i 2 -a 2 -x {1.0 6.0 1 ------- null}
+ -t 1.02942857142857 -s 2 -d 3 -p tcp -e 1040 -c 2 -i 2 -a 2 -x {1.0 6.0 1 ------- null}
- -t 1.02942857142857 -s 2 -d 3 -p tcp -e 1040 -c 2 -i 2 -a 2 -x {1.0 6.0 1 ------- null}
h -t 1.02942857142857 -s 2 -d 3 -p tcp -e 1040 -c 2 -i 2 -a 2 -x {1.0 6.0 -1 ------- null}
r -t 1.03774857142857 -s 1 -d 2 -p tcp -e 1040 -c 2 -i 3 -a 2 -x {1.0 6.0 2 ------- null}
+ -t 1.03774857142857 -s 2 -d 3 -p tcp -e 1040 -c 2 -i 3 -a 2 -x {1.0 6.0 2 ------- null}
- -t 1.04131428571429 -s 2 -d 3 -p tcp -e 1040 -c 2 -i 3 -a 2 -x {1.0 6.0 2 ------- null}
h -t 1.04131428571429 -s 2 -d 3 -p tcp -e 1040 -c 2 -i 3 -a 2 -x {1.0 6.0 -1 ------- null}
r -t 1.04331428571429 -s 2 -d 3 -p tcp -e 1040 -c 2 -i 2 -a 2 -x {1.0 6.0 1 ------- null}
+ -t 1.04331428571429 -s 3 -d 5 -p tcp -e 1040 -c 2 -i 2 -a 2 -x {1.0 6.0 1 ------- null}
- -t 1.04331428571429 -s 3 -d 5 -p tcp -e 1040 -c 2 -i 2 -a 2 -x {1.0 6.0 1 ------- null}
h -t 1.04331428571429 -s 3 -d 5 -p tcp -e 1040 -c 2 -i 2 -a 2 -x {1.0 6.0 -1 ------- null}
r -t 1.0552 -s 2 -d 3 -p tcp -e 1040 -c 2 -i 3 -a 2 -x {1.0 6.0 2 ------- null}
+ -t 1.0552 -s 3 -d 5 -p tcp -e 1040 -c 2 -i 3 -a 2 -x {1.0 6.0 2 ------- null}
- -t 1.0552 -s 3 -d 5 -p tcp -e 1040 -c 2 -i 3 -a 2 -x {1.0 6.0 2 ------- null}
h -t 1.0552 -s 3 -d 5 -p tcp -e 1040 -c 2 -i 3 -a 2 -x {1.0 6.0 -1 ------- null}
r -t 1.0572 -s 3 -d 5 -p tcp -e 1040 -c 2 -i 2 -a 2 -x {1.0 6.0 1 ------- null}
+ -t 1.0572 -s 5 -d 6 -p tcp -e 1040 -c 2 -i 2 -a 2 -x {1.0 6.0 1 ------- null}
- -t 1.0572 -s 5 -d 6 -p tcp -e 1040 -c 2 -i 2 -a 2 -x {1.0 6.0 1 ------- null}
h -t 1.0572 -s 5 -d 6 -p tcp -e 1040 -c 2 -i 2 -a 2 -x {1.0 6.0 -1 ------- null}
r -t 1.06752 -s 5 -d 6 -p tcp -e 1040 -c 2 -i 2 -a 2 -x {1.0 6.0 1 ------- null}
+ -t 1.06752 -s 6 -d 5 -p ack -e 40 -c 2 -i 4 -a 2 -x {6.0 1.0 1 ------- null}
- -t 1.06752 -s 6 -d 5 -p ack -e 40 -c 2 -i 4 -a 2 -x {6.0 1.0 1 ------- null}
h -t 1.06752 -s 6 -d 5 -p ack -e 40 -c 2 -i 4 -a 2 -x {6.0 1.0 -1 ------- null}
r -t 1.06908571428572 -s 3 -d 5 -p tcp -e 1040 -c 2 -i 3 -a 2 -x {1.0 6.0 2 ------- null}
+ -t 1.06908571428572 -s 5 -d 6 -p tcp -e 1040 -c 2 -i 3 -a 2 -x {1.0 6.0 2 ------- null}
- -t 1.06908571428572 -s 5 -d 6 -p tcp -e 1040 -c 2 -i 3 -a 2 -x {1.0 6.0 2 ------- null}
h -t 1.06908571428572 -s 5 -d 6 -p tcp -e 1040 -c 2 -i 3 -a 2 -x {1.0 6.0 -1 ------- null}
r -t 1.06984 -s 6 -d 5 -p ack -e 40 -c 2 -i 4 -a 2 -x {6.0 1.0 1 ------- null}
+ -t 1.06984 -s 5 -d 3 -p ack -e 40 -c 2 -i 4 -a 2 -x {6.0 1.0 1 ------- null}
- -t 1.06984 -s 5 -d 3 -p ack -e 40 -c 2 -i 4 -a 2 -x {6.0 1.0 1 ------- null}
h -t 1.06984 -s 5 -d 3 -p ack -e 40 -c 2 -i 4 -a 2 -x {6.0 1.0 -1 ------- null}
r -t 1.07229714285714 -s 5 -d 3 -p ack -e 40 -c 2 -i 4 -a 2 -x {6.0 1.0 1 ------- null}
+ -t 1.07229714285714 -s 3 -d 2 -p ack -e 40 -c 2 -i 4 -a 2 -x {6.0 1.0 1 ------- null}
- -t 1.07229714285714 -s 3 -d 2 -p ack -e 40 -c 2 -i 4 -a 2 -x {6.0 1.0 1 ------- null}
h -t 1.07229714285714 -s 3 -d 2 -p ack -e 40 -c 2 -i 4 -a 2 -x {6.0 1.0 -1 ------- null}
r -t 1.07475428571429 -s 3 -d 2 -p ack -e 40 -c 2 -i 4 -a 2 -x {6.0 1.0 1 ------- null}
+ -t 1.07475428571429 -s 2 -d 1 -p ack -e 40 -c 2 -i 4 -a 2 -x {6.0 1.0 1 ------- null}
- -t 1.07475428571429 -s 2 -d 1 -p ack -e 40 -c 2 -i 4 -a 2 -x {6.0 1.0 1 ------- null}
h -t 1.07475428571429 -s 2 -d 1 -p ack -e 40 -c 2 -i 4 -a 2 -x {6.0 1.0 -1 ------- null}
r -t 1.07707428571429 -s 2 -d 1 -p ack -e 40 -c 2 -i 4 -a 2 -x {6.0 1.0 1 ------- null}
+ -t 1.07707428571429 -s 1 -d 2 -p tcp -e 1040 -c 2 -i 5 -a 2 -x {1.0 6.0 3 ------- null}
- -t 1.07707428571429 -s 1 -d 2 -p tcp -e 1040 -c 2 -i 5 -a 2 -x {1.0 6.0 3 ------- null}
h -t 1.07707428571429 -s 1 -d 2 -p tcp -e 1040 -c 2 -i 5 -a 2 -x {1.0 6.0 -1 ------- null}
+ -t 1.07707428571429 -s 1 -d 2 -p tcp -e 1040 -c 2 -i 6 -a 2 -x {1.0 6.0 4 ------- null}
r -t 1.07940571428572 -s 5 -d 6 -p tcp -e 1040 -c 2 -i 3 -a 2 -x {1.0 6.0 2 ------- null}
+ -t 1.07940571428572 -s 6 -d 5 -p ack -e 40 -c 2 -i 7 -a 2 -x {6.0 1.0 2 ------- null}
- -t 1.07940571428572 -s 6 -d 5 -p ack -e 40 -c 2 -i 7 -a 2 -x {6.0 1.0 2 ------- null}
h -t 1.07940571428572 -s 6 -d 5 -p ack -e 40 -c 2 -i 7 -a 2 -x {6.0 1.0 -1 ------- null}
r -t 1.08172571428572 -s 6 -d 5 -p ack -e 40 -c 2 -i 7 -a 2 -x {6.0 1.0 2 ------- null}
+ -t 1.08172571428572 -s 5 -d 3 -p ack -e 40 -c 2 -i 7 -a 2 -x {6.0 1.0 2 ------- null}
- -t 1.08172571428572 -s 5 -d 3 -p ack -e 40 -c 2 -i 7 -a 2 -x {6.0 1.0 2 ------- null}
h -t 1.08172571428572 -s 5 -d 3 -p ack -e 40 -c 2 -i 7 -a 2 -x {6.0 1.0 -1 ------- null}
r -t 1.08418285714286 -s 5 -d 3 -p ack -e 40 -c 2 -i 7 -a 2 -x {6.0 1.0 2 ------- null}
+ -t 1.08418285714286 -s 3 -d 2 -p ack -e 40 -c 2 -i 7 -a 2 -x {6.0 1.0 2 ------- null}
- -t 1.08418285714286 -s 3 -d 2 -p ack -e 40 -c 2 -i 7 -a 2 -x {6.0 1.0 2 ------- null}
h -t 1.08418285714286 -s 3 -d 2 -p ack -e 40 -c 2 -i 7 -a 2 -x {6.0 1.0 -1 ------- null}
- -t 1.08539428571429 -s 1 -d 2 -p tcp -e 1040 -c 2 -i 6 -a 2 -x {1.0 6.0 4 ------- null}
h -t 1.08539428571429 -s 1 -d 2 -p tcp -e 1040 -c 2 -i 6 -a 2 -x {1.0 6.0 -1 ------- null}
r -t 1.08664 -s 3 -d 2 -p ack -e 40 -c 2 -i 7 -a 2 -x {6.0 1.0 2 ------- null}
+ -t 1.08664 -s 2 -d 1 -p ack -e 40 -c 2 -i 7 -a 2 -x {6.0 1.0 2 ------- null}
- -t 1.08664 -s 2 -d 1 -p ack -e 40 -c 2 -i 7 -a 2 -x {6.0 1.0 2 ------- null}
h -t 1.08664 -s 2 -d 1 -p ack -e 40 -c 2 -i 7 -a 2 -x {6.0 1.0 -1 ------- null}
r -t 1.08739428571429 -s 1 -d 2 -p tcp -e 1040 -c 2 -i 5 -a 2 -x {1.0 6.0 3 ------- null}
+ -t 1.08739428571429 -s 2 -d 3 -p tcp -e 1040 -c 2 -i 5 -a 2 -x {1.0 6.0 3 ------- null}
- -t 1.08739428571429 -s 2 -d 3 -p tcp -e 1040 -c 2 -i 5 -a 2 -x {1.0 6.0 3 ------- null}
h -t 1.08739428571429 -s 2 -d 3 -p tcp -e 1040 -c 2 -i 5 -a 2 -x {1.0 6.0 -1 ------- null}
r -t 1.08896 -s 2 -d 1 -p ack -e 40 -c 2 -i 7 -a 2 -x {6.0 1.0 2 ------- null}
+ -t 1.08896 -s 1 -d 2 -p tcp -e 1040 -c 2 -i 8 -a 2 -x {1.0 6.0 5 ------- null}
+ -t 1.08896 -s 1 -d 2 -p tcp -e 1040 -c 2 -i 9 -a 2 -x {1.0 6.0 6 ------- null}
- -t 1.09371428571429 -s 1 -d 2 -p tcp -e 1040 -c 2 -i 8 -a 2 -x {1.0 6.0 5 ------- null}
h -t 1.09371428571429 -s 1 -d 2 -p tcp -e 1040 -c 2 -i 8 -a 2 -x {1.0 6.0 -1 ------- null}
r -t 1.09571428571429 -s 1 -d 2 -p tcp -e 1040 -c 2 -i 6 -a 2 -x {1.0 6.0 4 ------- null}
+ -t 1.09571428571429 -s 2 -d 3 -p tcp -e 1040 -c 2 -i 6 -a 2 -x {1.0 6.0 4 ------- null}
- -t 1.09928 -s 2 -d 3 -p tcp -e 1040 -c 2 -i 6 -a 2 -x {1.0 6.0 4 ------- null}
h -t 1.09928 -s 2 -d 3 -p tcp -e 1040 -c 2 -i 6 -a 2 -x {1.0 6.0 -1 ------- null}
r -t 1.10128 -s 2 -d 3 -p tcp -e 1040 -c 2 -i 5 -a 2 -x {1.0 6.0 3 ------- null}
+ -t 1.10128 -s 3 -d 5 -p tcp -e 1040 -c 2 -i 5 -a 2 -x {1.0 6.0 3 ------- null}
- -t 1.10128 -s 3 -d 5 -p tcp -e 1040 -c 2 -i 5 -a 2 -x {1.0 6.0 3 ------- null}
h -t 1.10128 -s 3 -d 5 -p tcp -e 1040 -c 2 -i 5 -a 2 -x {1.0 6.0 -1 ------- null}
- -t 1.10203428571429 -s 1 -d 2 -p tcp -e 1040 -c 2 -i 9 -a 2 -x {1.0 6.0 6 ------- null}
h -t 1.10203428571429 -s 1 -d 2 -p tcp -e 1040 -c 2 -i 9 -a 2 -x {1.0 6.0 -1 ------- null}
r -t 1.10403428571429 -s 1 -d 2 -p tcp -e 1040 -c 2 -i 8 -a 2 -x {1.0 6.0 5 ------- null}
+ -t 1.10403428571429 -s 2 -d 3 -p tcp -e 1040 -c 2 -i 8 -a 2 -x {1.0 6.0 5 ------- null}
- -t 1.11116571428572 -s 2 -d 3 -p tcp -e 1040 -c 2 -i 8 -a 2 -x {1.0 6.0 5 ------- null}
h -t 1.11116571428572 -s 2 -d 3 -p tcp -e 1040 -c 2 -i 8 -a 2 -x {1.0 6.0 -1 ------- null}
r -t 1.11235428571429 -s 1 -d 2 -p tcp -e 1040 -c 2 -i 9 -a 2 -x {1.0 6.0 6 ------- null}
+ -t 1.11235428571429 -s 2 -d 3 -p tcp -e 1040 -c 2 -i 9 -a 2 -x {1.0 6.0 6 ------- null}
r -t 1.11316571428572 -s 2 -d 3 -p tcp -e 1040 -c 2 -i 6 -a 2 -x {1.0 6.0 4 ------- null}
+ -t 1.11316571428572 -s 3 -d 5 -p tcp -e 1040 -c 2 -i 6 -a 2 -x {1.0 6.0 4 ------- null}
- -t 1.11316571428572 -s 3 -d 5 -p tcp -e 1040 -c 2 -i 6 -a 2 -x {1.0 6.0 4 ------- null}
h -t 1.11316571428572 -s 3 -d 5 -p tcp -e 1040 -c 2 -i 6 -a 2 -x {1.0 6.0 -1 ------- null}
r -t 1.11516571428572 -s 3 -d 5 -p tcp -e 1040 -c 2 -i 5 -a 2 -x {1.0 6.0 3 ------- null}
+ -t 1.11516571428572 -s 5 -d 6 -p tcp -e 1040 -c 2 -i 5 -a 2 -x {1.0 6.0 3 ------- null}
- -t 1.11516571428572 -s 5 -d 6 -p tcp -e 1040 -c 2 -i 5 -a 2 -x {1.0 6.0 3 ------- null}
h -t 1.11516571428572 -s 5 -d 6 -p tcp -e 1040 -c 2 -i 5 -a 2 -x {1.0 6.0 -1 ------- null}
- -t 1.12305142857143 -s 2 -d 3 -p tcp -e 1040 -c 2 -i 9 -a 2 -x {1.0 6.0 6 ------- null}
h -t 1.12305142857143 -s 2 -d 3 -p tcp -e 1040 -c 2 -i 9 -a 2 -x {1.0 6.0 -1 ------- null}
r -t 1.12505142857143 -s 2 -d 3 -p tcp -e 1040 -c 2 -i 8 -a 2 -x {1.0 6.0 5 ------- null}
+ -t 1.12505142857143 -s 3 -d 5 -p tcp -e 1040 -c 2 -i 8 -a 2 -x {1.0 6.0 5 ------- null}
- -t 1.12505142857143 -s 3 -d 5 -p tcp -e 1040 -c 2 -i 8 -a 2 -x {1.0 6.0 5 ------- null}
h -t 1.12505142857143 -s 3 -d 5 -p tcp -e 1040 -c 2 -i 8 -a 2 -x {1.0 6.0 -1 ------- null}
r -t 1.12548571428572 -s 5 -d 6 -p tcp -e 1040 -c 2 -i 5 -a 2 -x {1.0 6.0 3 ------- null}
+ -t 1.12548571428572 -s 6 -d 5 -p ack -e 40 -c 2 -i 10 -a 2 -x {6.0 1.0 3 ------- null}
- -t 1.12548571428572 -s 6 -d 5 -p ack -e 40 -c 2 -i 10 -a 2 -x {6.0 1.0 3 ------- null}
h -t 1.12548571428572 -s 6 -d 5 -p ack -e 40 -c 2 -i 10 -a 2 -x {6.0 1.0 -1 ------- null}
r -t 1.12705142857143 -s 3 -d 5 -p tcp -e 1040 -c 2 -i 6 -a 2 -x {1.0 6.0 4 ------- null}
+ -t 1.12705142857143 -s 5 -d 6 -p tcp -e 1040 -c 2 -i 6 -a 2 -x {1.0 6.0 4 ------- null}
- -t 1.12705142857143 -s 5 -d 6 -p tcp -e 1040 -c 2 -i 6 -a 2 -x {1.0 6.0 4 ------- null}
h -t 1.12705142857143 -s 5 -d 6 -p tcp -e 1040 -c 2 -i 6 -a 2 -x {1.0 6.0 -1 ------- null}
r -t 1.12780571428572 -s 6 -d 5 -p ack -e 40 -c 2 -i 10 -a 2 -x {6.0 1.0 3 ------- null}
+ -t 1.12780571428572 -s 5 -d 3 -p ack -e 40 -c 2 -i 10 -a 2 -x {6.0 1.0 3 ------- null}
- -t 1.12780571428572 -s 5 -d 3 -p ack -e 40 -c 2 -i 10 -a 2 -x {6.0 1.0 3 ------- null}
h -t 1.12780571428572 -s 5 -d 3 -p ack -e 40 -c 2 -i 10 -a 2 -x {6.0 1.0 -1 ------- null}
r -t 1.13026285714286 -s 5 -d 3 -p ack -e 40 -c 2 -i 10 -a 2 -x {6.0 1.0 3 ------- null}
+ -t 1.13026285714286 -s 3 -d 2 -p ack -e 40 -c 2 -i 10 -a 2 -x {6.0 1.0 3 ------- null}
- -t 1.13026285714286 -s 3 -d 2 -p ack -e 40 -c 2 -i 10 -a 2 -x {6.0 1.0 3 ------- null}
h -t 1.13026285714286 -s 3 -d 2 -p ack -e 40 -c 2 -i 10 -a 2 -x {6.0 1.0 -1 ------- null}
r -t 1.13272 -s 3 -d 2 -p ack -e 40 -c 2 -i 10 -a 2 -x {6.0 1.0 3 ------- null}
+ -t 1.13272 -s 2 -d 1 -p ack -e 40 -c 2 -i 10 -a 2 -x {6.0 1.0 3 ------- null}
- -t 1.13272 -s 2 -d 1 -p ack -e 40 -c 2 -i 10 -a 2 -x {6.0 1.0 3 ------- null}
h -t 1.13272 -s 2 -d 1 -p ack -e 40 -c 2 -i 10 -a 2 -x {6.0 1.0 -1 ------- null}
r -t 1.13504 -s 2 -d 1 -p ack -e 40 -c 2 -i 10 -a 2 -x {6.0 1.0 3 ------- null}
+ -t 1.13504 -s 1 -d 2 -p tcp -e 1040 -c 2 -i 11 -a 2 -x {1.0 6.0 7 ------- null}
- -t 1.13504 -s 1 -d 2 -p tcp -e 1040 -c 2 -i 11 -a 2 -x {1.0 6.0 7 ------- null}
h -t 1.13504 -s 1 -d 2 -p tcp -e 1040 -c 2 -i 11 -a 2 -x {1.0 6.0 -1 ------- null}
+ -t 1.13504 -s 1 -d 2 -p tcp -e 1040 -c 2 -i 12 -a 2 -x {1.0 6.0 8 ------- null}
r -t 1.13693714285714 -s 2 -d 3 -p tcp -e 1040 -c 2 -i 9 -a 2 -x {1.0 6.0 6 ------- null}
+ -t 1.13693714285714 -s 3 -d 5 -p tcp -e 1040 -c 2 -i 9 -a 2 -x {1.0 6.0 6 ------- null}
- -t 1.13693714285714 -s 3 -d 5 -p tcp -e 1040 -c 2 -i 9 -a 2 -x {1.0 6.0 6 ------- null}
h -t 1.13693714285714 -s 3 -d 5 -p tcp -e 1040 -c 2 -i 9 -a 2 -x {1.0 6.0 -1 ------- null}
r -t 1.13737142857143 -s 5 -d 6 -p tcp -e 1040 -c 2 -i 6 -a 2 -x {1.0 6.0 4 ------- null}
+ -t 1.13737142857143 -s 6 -d 5 -p ack -e 40 -c 2 -i 13 -a 2 -x {6.0 1.0 4 ------- null}
- -t 1.13737142857143 -s 6 -d 5 -p ack -e 40 -c 2 -i 13 -a 2 -x {6.0 1.0 4 ------- null}
h -t 1.13737142857143 -s 6 -d 5 -p ack -e 40 -c 2 -i 13 -a 2 -x {6.0 1.0 -1 ------- null}
r -t 1.13893714285714 -s 3 -d 5 -p tcp -e 1040 -c 2 -i 8 -a 2 -x {1.0 6.0 5 ------- null}
+ -t 1.13893714285714 -s 5 -d 6 -p tcp -e 1040 -c 2 -i 8 -a 2 -x {1.0 6.0 5 ------- null}
- -t 1.13893714285714 -s 5 -d 6 -p tcp -e 1040 -c 2 -i 8 -a 2 -x {1.0 6.0 5 ------- null}
h -t 1.13893714285714 -s 5 -d 6 -p tcp -e 1040 -c 2 -i 8 -a 2 -x {1.0 6.0 -1 ------- null}
r -t 1.13969142857143 -s 6 -d 5 -p ack -e 40 -c 2 -i 13 -a 2 -x {6.0 1.0 4 ------- null}
+ -t 1.13969142857143 -s 5 -d 3 -p ack -e 40 -c 2 -i 13 -a 2 -x {6.0 1.0 4 ------- null}
- -t 1.13969142857143 -s 5 -d 3 -p ack -e 40 -c 2 -i 13 -a 2 -x {6.0 1.0 4 ------- null}
h -t 1.13969142857143 -s 5 -d 3 -p ack -e 40 -c 2 -i 13 -a 2 -x {6.0 1.0 -1 ------- null}
r -t 1.14214857142857 -s 5 -d 3 -p ack -e 40 -c 2 -i 13 -a 2 -x {6.0 1.0 4 ------- null}
+ -t 1.14214857142857 -s 3 -d 2 -p ack -e 40 -c 2 -i 13 -a 2 -x {6.0 1.0 4 ------- null}
- -t 1.14214857142857 -s 3 -d 2 -p ack -e 40 -c 2 -i 13 -a 2 -x {6.0 1.0 4 ------- null}
h -t 1.14214857142857 -s 3 -d 2 -p ack -e 40 -c 2 -i 13 -a 2 -x {6.0 1.0 -1 ------- null}
- -t 1.14336 -s 1 -d 2 -p tcp -e 1040 -c 2 -i 12 -a 2 -x {1.0 6.0 8 ------- null}
h -t 1.14336 -s 1 -d 2 -p tcp -e 1040 -c 2 -i 12 -a 2 -x {1.0 6.0 -1 ------- null}
r -t 1.14460571428572 -s 3 -d 2 -p ack -e 40 -c 2 -i 13 -a 2 -x {6.0 1.0 4 ------- null}
+ -t 1.14460571428572 -s 2 -d 1 -p ack -e 40 -c 2 -i 13 -a 2 -x {6.0 1.0 4 ------- null}
- -t 1.14460571428572 -s 2 -d 1 -p ack -e 40 -c 2 -i 13 -a 2 -x {6.0 1.0 4 ------- null}
h -t 1.14460571428572 -s 2 -d 1 -p ack -e 40 -c 2 -i 13 -a 2 -x {6.0 1.0 -1 ------- null}
r -t 1.14536 -s 1 -d 2 -p tcp -e 1040 -c 2 -i 11 -a 2 -x {1.0 6.0 7 ------- null}
+ -t 1.14536 -s 2 -d 3 -p tcp -e 1040 -c 2 -i 11 -a 2 -x {1.0 6.0 7 ------- null}
- -t 1.14536 -s 2 -d 3 -p tcp -e 1040 -c 2 -i 11 -a 2 -x {1.0 6.0 7 ------- null}
h -t 1.14536 -s 2 -d 3 -p tcp -e 1040 -c 2 -i 11 -a 2 -x {1.0 6.0 -1 ------- null}
r -t 1.14692571428572 -s 2 -d 1 -p ack -e 40 -c 2 -i 13 -a 2 -x {6.0 1.0 4 ------- null}
+ -t 1.14692571428572 -s 1 -d 2 -p tcp -e 1040 -c 2 -i 14 -a 2 -x {1.0 6.0 9 ------- null}
+ -t 1.14692571428572 -s 1 -d 2 -p tcp -e 1040 -c 2 -i 15 -a 2 -x {1.0 6.0 10 ------- null}
r -t 1.14925714285714 -s 5 -d 6 -p tcp -e 1040 -c 2 -i 8 -a 2 -x {1.0 6.0 5 ------- null}
+ -t 1.14925714285714 -s 6 -d 5 -p ack -e 40 -c 2 -i 16 -a 2 -x {6.0 1.0 5 ------- null}
- -t 1.14925714285714 -s 6 -d 5 -p ack -e 40 -c 2 -i 16 -a 2 -x {6.0 1.0 5 ------- null}
h -t 1.14925714285714 -s 6 -d 5 -p ack -e 40 -c 2 -i 16 -a 2 -x {6.0 1.0 -1 ------- null}
r -t 1.15082285714286 -s 3 -d 5 -p tcp -e 1040 -c 2 -i 9 -a 2 -x {1.0 6.0 6 ------- null}
+ -t 1.15082285714286 -s 5 -d 6 -p tcp -e 1040 -c 2 -i 9 -a 2 -x {1.0 6.0 6 ------- null}
- -t 1.15082285714286 -s 5 -d 6 -p tcp -e 1040 -c 2 -i 9 -a 2 -x {1.0 6.0 6 ------- null}
h -t 1.15082285714286 -s 5 -d 6 -p tcp -e 1040 -c 2 -i 9 -a 2 -x {1.0 6.0 -1 ------- null}
r -t 1.15157714285714 -s 6 -d 5 -p ack -e 40 -c 2 -i 16 -a 2 -x {6.0 1.0 5 ------- null}
+ -t 1.15157714285714 -s 5 -d 3 -p ack -e 40 -c 2 -i 16 -a 2 -x {6.0 1.0 5 ------- null}
- -t 1.15157714285714 -s 5 -d 3 -p ack -e 40 -c 2 -i 16 -a 2 -x {6.0 1.0 5 ------- null}
h -t 1.15157714285714 -s 5 -d 3 -p ack -e 40 -c 2 -i 16 -a 2 -x {6.0 1.0 -1 ------- null}
- -t 1.15168 -s 1 -d 2 -p tcp -e 1040 -c 2 -i 14 -a 2 -x {1.0 6.0 9 ------- null}
h -t 1.15168 -s 1 -d 2 -p tcp -e 1040 -c 2 -i 14 -a 2 -x {1.0 6.0 -1 ------- null}
r -t 1.15368 -s 1 -d 2 -p tcp -e 1040 -c 2 -i 12 -a 2 -x {1.0 6.0 8 ------- null}
+ -t 1.15368 -s 2 -d 3 -p tcp -e 1040 -c 2 -i 12 -a 2 -x {1.0 6.0 8 ------- null}
r -t 1.15403428571429 -s 5 -d 3 -p ack -e 40 -c 2 -i 16 -a 2 -x {6.0 1.0 5 ------- null}
+ -t 1.15403428571429 -s 3 -d 2 -p ack -e 40 -c 2 -i 16 -a 2 -x {6.0 1.0 5 ------- null}
- -t 1.15403428571429 -s 3 -d 2 -p ack -e 40 -c 2 -i 16 -a 2 -x {6.0 1.0 5 ------- null}
h -t 1.15403428571429 -s 3 -d 2 -p ack -e 40 -c 2 -i 16 -a 2 -x {6.0 1.0 -1 ------- null}
r -t 1.15649142857143 -s 3 -d 2 -p ack -e 40 -c 2 -i 16 -a 2 -x {6.0 1.0 5 ------- null}
+ -t 1.15649142857143 -s 2 -d 1 -p ack -e 40 -c 2 -i 16 -a 2 -x {6.0 1.0 5 ------- null}
- -t 1.15649142857143 -s 2 -d 1 -p ack -e 40 -c 2 -i 16 -a 2 -x {6.0 1.0 5 ------- null}
h -t 1.15649142857143 -s 2 -d 1 -p ack -e 40 -c 2 -i 16 -a 2 -x {6.0 1.0 -1 ------- null}
- -t 1.15724571428572 -s 2 -d 3 -p tcp -e 1040 -c 2 -i 12 -a 2 -x {1.0 6.0 8 ------- null}
h -t 1.15724571428572 -s 2 -d 3 -p tcp -e 1040 -c 2 -i 12 -a 2 -x {1.0 6.0 -1 ------- null}
r -t 1.15881142857143 -s 2 -d 1 -p ack -e 40 -c 2 -i 16 -a 2 -x {6.0 1.0 5 ------- null}
+ -t 1.15881142857143 -s 1 -d 2 -p tcp -e 1040 -c 2 -i 17 -a 2 -x {1.0 6.0 11 ------- null}
+ -t 1.15881142857143 -s 1 -d 2 -p tcp -e 1040 -c 2 -i 18 -a 2 -x {1.0 6.0 12 ------- null}
r -t 1.15924571428572 -s 2 -d 3 -p tcp -e 1040 -c 2 -i 11 -a 2 -x {1.0 6.0 7 ------- null}
+ -t 1.15924571428572 -s 3 -d 5 -p tcp -e 1040 -c 2 -i 11 -a 2 -x {1.0 6.0 7 ------- null}
- -t 1.15924571428572 -s 3 -d 5 -p tcp -e 1040 -c 2 -i 11 -a 2 -x {1.0 6.0 7 ------- null}
h -t 1.15924571428572 -s 3 -d 5 -p tcp -e 1040 -c 2 -i 11 -a 2 -x {1.0 6.0 -1 ------- null}
- -t 1.16 -s 1 -d 2 -p tcp -e 1040 -c 2 -i 15 -a 2 -x {1.0 6.0 10 ------- null}
h -t 1.16 -s 1 -d 2 -p tcp -e 1040 -c 2 -i 15 -a 2 -x {1.0 6.0 -1 ------- null}
r -t 1.16114285714286 -s 5 -d 6 -p tcp -e 1040 -c 2 -i 9 -a 2 -x {1.0 6.0 6 ------- null}
+ -t 1.16114285714286 -s 6 -d 5 -p ack -e 40 -c 2 -i 19 -a 2 -x {6.0 1.0 6 ------- null}
- -t 1.16114285714286 -s 6 -d 5 -p ack -e 40 -c 2 -i 19 -a 2 -x {6.0 1.0 6 ------- null}
h -t 1.16114285714286 -s 6 -d 5 -p ack -e 40 -c 2 -i 19 -a 2 -x {6.0 1.0 -1 ------- null}
r -t 1.162 -s 1 -d 2 -p tcp -e 1040 -c 2 -i 14 -a 2 -x {1.0 6.0 9 ------- null}
+ -t 1.162 -s 2 -d 3 -p tcp -e 1040 -c 2 -i 14 -a 2 -x {1.0 6.0 9 ------- null}
r -t 1.16346285714286 -s 6 -d 5 -p ack -e 40 -c 2 -i 19 -a 2 -x {6.0 1.0 6 ------- null}
+ -t 1.16346285714286 -s 5 -d 3 -p ack -e 40 -c 2 -i 19 -a 2 -x {6.0 1.0 6 ------- null}
- -t 1.16346285714286 -s 5 -d 3 -p ack -e 40 -c 2 -i 19 -a 2 -x {6.0 1.0 6 ------- null}
h -t 1.16346285714286 -s 5 -d 3 -p ack -e 40 -c 2 -i 19 -a 2 -x {6.0 1.0 -1 ------- null}
r -t 1.16592 -s 5 -d 3 -p ack -e 40 -c 2 -i 19 -a 2 -x {6.0 1.0 6 ------- null}
+ -t 1.16592 -s 3 -d 2 -p ack -e 40 -c 2 -i 19 -a 2 -x {6.0 1.0 6 ------- null}
- -t 1.16592 -s 3 -d 2 -p ack -e 40 -c 2 -i 19 -a 2 -x {6.0 1.0 6 ------- null}
h -t 1.16592 -s 3 -d 2 -p ack -e 40 -c 2 -i 19 -a 2 -x {6.0 1.0 -1 ------- null}
- -t 1.16832 -s 1 -d 2 -p tcp -e 1040 -c 2 -i 17 -a 2 -x {1.0 6.0 11 ------- null}
h -t 1.16832 -s 1 -d 2 -p tcp -e 1040 -c 2 -i 17 -a 2 -x {1.0 6.0 -1 ------- null}
r -t 1.16837714285714 -s 3 -d 2 -p ack -e 40 -c 2 -i 19 -a 2 -x {6.0 1.0 6 ------- null}
+ -t 1.16837714285714 -s 2 -d 1 -p ack -e 40 -c 2 -i 19 -a 2 -x {6.0 1.0 6 ------- null}
- -t 1.16837714285714 -s 2 -d 1 -p ack -e 40 -c 2 -i 19 -a 2 -x {6.0 1.0 6 ------- null}
h -t 1.16837714285714 -s 2 -d 1 -p ack -e 40 -c 2 -i 19 -a 2 -x {6.0 1.0 -1 ------- null}
- -t 1.16913142857143 -s 2 -d 3 -p tcp -e 1040 -c 2 -i 14 -a 2 -x {1.0 6.0 9 ------- null}
h -t 1.16913142857143 -s 2 -d 3 -p tcp -e 1040 -c 2 -i 14 -a 2 -x {1.0 6.0 -1 ------- null}
r -t 1.17032 -s 1 -d 2 -p tcp -e 1040 -c 2 -i 15 -a 2 -x {1.0 6.0 10 ------- null}
+ -t 1.17032 -s 2 -d 3 -p tcp -e 1040 -c 2 -i 15 -a 2 -x {1.0 6.0 10 ------- null}
r -t 1.17069714285714 -s 2 -d 1 -p ack -e 40 -c 2 -i 19 -a 2 -x {6.0 1.0 6 ------- null}
+ -t 1.17069714285714 -s 1 -d 2 -p tcp -e 1040 -c 2 -i 20 -a 2 -x {1.0 6.0 13 ------- null}
+ -t 1.17069714285714 -s 1 -d 2 -p tcp -e 1040 -c 2 -i 21 -a 2 -x {1.0 6.0 14 ------- null}
r -t 1.17113142857143 -s 2 -d 3 -p tcp -e 1040 -c 2 -i 12 -a 2 -x {1.0 6.0 8 ------- null}
+ -t 1.17113142857143 -s 3 -d 5 -p tcp -e 1040 -c 2 -i 12 -a 2 -x {1.0 6.0 8 ------- null}
- -t 1.17113142857143 -s 3 -d 5 -p tcp -e 1040 -c 2 -i 12 -a 2 -x {1.0 6.0 8 ------- null}
h -t 1.17113142857143 -s 3 -d 5 -p tcp -e 1040 -c 2 -i 12 -a 2 -x {1.0 6.0 -1 ------- null}
r -t 1.17313142857143 -s 3 -d 5 -p tcp -e 1040 -c 2 -i 11 -a 2 -x {1.0 6.0 7 ------- null}
+ -t 1.17313142857143 -s 5 -d 6 -p tcp -e 1040 -c 2 -i 11 -a 2 -x {1.0 6.0 7 ------- null}
- -t 1.17313142857143 -s 5 -d 6 -p tcp -e 1040 -c 2 -i 11 -a 2 -x {1.0 6.0 7 ------- null}
h -t 1.17313142857143 -s 5 -d 6 -p tcp -e 1040 -c 2 -i 11 -a 2 -x {1.0 6.0 -1 ------- null}
- -t 1.17664 -s 1 -d 2 -p tcp -e 1040 -c 2 -i 18 -a 2 -x {1.0 6.0 12 ------- null}
h -t 1.17664 -s 1 -d 2 -p tcp -e 1040 -c 2 -i 18 -a 2 -x {1.0 6.0 -1 ------- null}
r -t 1.17864 -s 1 -d 2 -p tcp -e 1040 -c 2 -i 17 -a 2 -x {1.0 6.0 11 ------- null}
+ -t 1.17864 -s 2 -d 3 -p tcp -e 1040 -c 2 -i 17 -a 2 -x {1.0 6.0 11 ------- null}
- -t 1.18101714285714 -s 2 -d 3 -p tcp -e 1040 -c 2 -i 15 -a 2 -x {1.0 6.0 10 ------- null}
h -t 1.18101714285714 -s 2 -d 3 -p tcp -e 1040 -c 2 -i 15 -a 2 -x {1.0 6.0 -1 ------- null}
r -t 1.18301714285714 -s 2 -d 3 -p tcp -e 1040 -c 2 -i 14 -a 2 -x {1.0 6.0 9 ------- null}
+ -t 1.18301714285714 -s 3 -d 5 -p tcp -e 1040 -c 2 -i 14 -a 2 -x {1.0 6.0 9 ------- null}
- -t 1.18301714285714 -s 3 -d 5 -p tcp -e 1040 -c 2 -i 14 -a 2 -x {1.0 6.0 9 ------- null}
h -t 1.18301714285714 -s 3 -d 5 -p tcp -e 1040 -c 2 -i 14 -a 2 -x {1.0 6.0 -1 ------- null}
r -t 1.18345142857143 -s 5 -d 6 -p tcp -e 1040 -c 2 -i 11 -a 2 -x {1.0 6.0 7 ------- null}
+ -t 1.18345142857143 -s 6 -d 5 -p ack -e 40 -c 2 -i 22 -a 2 -x {6.0 1.0 7 ------- null}
- -t 1.18345142857143 -s 6 -d 5 -p ack -e 40 -c 2 -i 22 -a 2 -x {6.0 1.0 7 ------- null}
h -t 1.18345142857143 -s 6 -d 5 -p ack -e 40 -c 2 -i 22 -a 2 -x {6.0 1.0 -1 ------- null}
- -t 1.18496 -s 1 -d 2 -p tcp -e 1040 -c 2 -i 20 -a 2 -x {1.0 6.0 13 ------- null}
h -t 1.18496 -s 1 -d 2 -p tcp -e 1040 -c 2 -i 20 -a 2 -x {1.0 6.0 -1 ------- null}
r -t 1.18501714285714 -s 3 -d 5 -p tcp -e 1040 -c 2 -i 12 -a 2 -x {1.0 6.0 8 ------- null}
+ -t 1.18501714285714 -s 5 -d 6 -p tcp -e 1040 -c 2 -i 12 -a 2 -x {1.0 6.0 8 ------- null}
- -t 1.18501714285714 -s 5 -d 6 -p tcp -e 1040 -c 2 -i 12 -a 2 -x {1.0 6.0 8 ------- null}
h -t 1.18501714285714 -s 5 -d 6 -p tcp -e 1040 -c 2 -i 12 -a 2 -x {1.0 6.0 -1 ------- null}
r -t 1.18577142857143 -s 6 -d 5 -p ack -e 40 -c 2 -i 22 -a 2 -x {6.0 1.0 7 ------- null}
+ -t 1.18577142857143 -s 5 -d 3 -p ack -e 40 -c 2 -i 22 -a 2 -x {6.0 1.0 7 ------- null}
- -t 1.18577142857143 -s 5 -d 3 -p ack -e 40 -c 2 -i 22 -a 2 -x {6.0 1.0 7 ------- null}
h -t 1.18577142857143 -s 5 -d 3 -p ack -e 40 -c 2 -i 22 -a 2 -x {6.0 1.0 -1 ------- null}
r -t 1.18696 -s 1 -d 2 -p tcp -e 1040 -c 2 -i 18 -a 2 -x {1.0 6.0 12 ------- null}
+ -t 1.18696 -s 2 -d 3 -p tcp -e 1040 -c 2 -i 18 -a 2 -x {1.0 6.0 12 ------- null}
r -t 1.18822857142857 -s 5 -d 3 -p ack -e 40 -c 2 -i 22 -a 2 -x {6.0 1.0 7 ------- null}
+ -t 1.18822857142857 -s 3 -d 2 -p ack -e 40 -c 2 -i 22 -a 2 -x {6.0 1.0 7 ------- null}
- -t 1.18822857142857 -s 3 -d 2 -p ack -e 40 -c 2 -i 22 -a 2 -x {6.0 1.0 7 ------- null}
h -t 1.18822857142857 -s 3 -d 2 -p ack -e 40 -c 2 -i 22 -a 2 -x {6.0 1.0 -1 ------- null}
r -t 1.19068571428572 -s 3 -d 2 -p ack -e 40 -c 2 -i 22 -a 2 -x {6.0 1.0 7 ------- null}
+ -t 1.19068571428572 -s 2 -d 1 -p ack -e 40 -c 2 -i 22 -a 2 -x {6.0 1.0 7 ------- null}
- -t 1.19068571428572 -s 2 -d 1 -p ack -e 40 -c 2 -i 22 -a 2 -x {6.0 1.0 7 ------- null}
h -t 1.19068571428572 -s 2 -d 1 -p ack -e 40 -c 2 -i 22 -a 2 -x {6.0 1.0 -1 ------- null}
- -t 1.19290285714286 -s 2 -d 3 -p tcp -e 1040 -c 2 -i 17 -a 2 -x {1.0 6.0 11 ------- null}
h -t 1.19290285714286 -s 2 -d 3 -p tcp -e 1040 -c 2 -i 17 -a 2 -x {1.0 6.0 -1 ------- null}
r -t 1.19300571428572 -s 2 -d 1 -p ack -e 40 -c 2 -i 22 -a 2 -x {6.0 1.0 7 ------- null}
+ -t 1.19300571428572 -s 1 -d 2 -p tcp -e 1040 -c 2 -i 23 -a 2 -x {1.0 6.0 15 ------- null}
+ -t 1.19300571428572 -s 1 -d 2 -p tcp -e 1040 -c 2 -i 24 -a 2 -x {1.0 6.0 16 ------- null}
- -t 1.19328 -s 1 -d 2 -p tcp -e 1040 -c 2 -i 21 -a 2 -x {1.0 6.0 14 ------- null}
h -t 1.19328 -s 1 -d 2 -p tcp -e 1040 -c 2 -i 21 -a 2 -x {1.0 6.0 -1 ------- null}
r -t 1.19490285714286 -s 2 -d 3 -p tcp -e 1040 -c 2 -i 15 -a 2 -x {1.0 6.0 10 ------- null}
+ -t 1.19490285714286 -s 3 -d 5 -p tcp -e 1040 -c 2 -i 15 -a 2 -x {1.0 6.0 10 ------- null}
- -t 1.19490285714286 -s 3 -d 5 -p tcp -e 1040 -c 2 -i 15 -a 2 -x {1.0 6.0 10 ------- null}
h -t 1.19490285714286 -s 3 -d 5 -p tcp -e 1040 -c 2 -i 15 -a 2 -x {1.0 6.0 -1 ------- null}
r -t 1.19528 -s 1 -d 2 -p tcp -e 1040 -c 2 -i 20 -a 2 -x {1.0 6.0 13 ------- null}
+ -t 1.19528 -s 2 -d 3 -p tcp -e 1040 -c 2 -i 20 -a 2 -x {1.0 6.0 13 ------- null}
r -t 1.19533714285714 -s 5 -d 6 -p tcp -e 1040 -c 2 -i 12 -a 2 -x {1.0 6.0 8 ------- null}
+ -t 1.19533714285714 -s 6 -d 5 -p ack -e 40 -c 2 -i 25 -a 2 -x {6.0 1.0 8 ------- null}
- -t 1.19533714285714 -s 6 -d 5 -p ack -e 40 -c 2 -i 25 -a 2 -x {6.0 1.0 8 ------- null}
h -t 1.19533714285714 -s 6 -d 5 -p ack -e 40 -c 2 -i 25 -a 2 -x {6.0 1.0 -1 ------- null}
r -t 1.19690285714286 -s 3 -d 5 -p tcp -e 1040 -c 2 -i 14 -a 2 -x {1.0 6.0 9 ------- null}
+ -t 1.19690285714286 -s 5 -d 6 -p tcp -e 1040 -c 2 -i 14 -a 2 -x {1.0 6.0 9 ------- null}
- -t 1.19690285714286 -s 5 -d 6 -p tcp -e 1040 -c 2 -i 14 -a 2 -x {1.0 6.0 9 ------- null}
h -t 1.19690285714286 -s 5 -d 6 -p tcp -e 1040 -c 2 -i 14 -a 2 -x {1.0 6.0 -1 ------- null}
r -t 1.19765714285714 -s 6 -d 5 -p ack -e 40 -c 2 -i 25 -a 2 -x {6.0 1.0 8 ------- null}
+ -t 1.19765714285714 -s 5 -d 3 -p ack -e 40 -c 2 -i 25 -a 2 -x {6.0 1.0 8 ------- null}
- -t 1.19765714285714 -s 5 -d 3 -p ack -e 40 -c 2 -i 25 -a 2 -x {6.0 1.0 8 ------- null}
h -t 1.19765714285714 -s 5 -d 3 -p ack -e 40 -c 2 -i 25 -a 2 -x {6.0 1.0 -1 ------- null}
r -t 1.20011428571429 -s 5 -d 3 -p ack -e 40 -c 2 -i 25 -a 2 -x {6.0 1.0 8 ------- null}
+ -t 1.20011428571429 -s 3 -d 2 -p ack -e 40 -c 2 -i 25 -a 2 -x {6.0 1.0 8 ------- null}
- -t 1.20011428571429 -s 3 -d 2 -p ack -e 40 -c 2 -i 25 -a 2 -x {6.0 1.0 8 ------- null}