+ 1 1 2 tcp 40 ------- 2 1.0 6.0 0 0
- 1 1 2 tcp 40 ------- 2 1.0 6.0 0 0
+ 1 1 2 tcp 1040 ------- 2 1.0 6.0 1 1
- 1.00032 1 2 tcp 1040 ------- 2 1.0 6.0 1 1
r 1.00232 1 2 tcp 40 ------- 2 1.0 6.0 0 0
+ 1.00232 2 3 tcp 40 ------- 2 1.0 6.0 0 0
- 1.00232 2 3 tcp 40 ------- 2 1.0 6.0 0 0
r 1.004777 2 3 tcp 40 ------- 2 1.0 6.0 0 0
+ 1.004777 3 5 tcp 40 ------- 2 1.0 6.0 0 0
- 1.004777 3 5 tcp 40 ------- 2 1.0 6.0 0 0
r 1.007234 3 5 tcp 40 ------- 2 1.0 6.0 0 0
+ 1.007234 5 6 tcp 40 ------- 2 1.0 6.0 0 0
- 1.007234 5 6 tcp 40 ------- 2 1.0 6.0 0 0
r 1.009554 5 6 tcp 40 ------- 2 1.0 6.0 0 0
+ 1.009554 6 5 ack 40 ------- 2 6.0 1.0 0 2
- 1.009554 6 5 ack 40 ------- 2 6.0 1.0 0 2
r 1.01064 1 2 tcp 1040 ------- 2 1.0 6.0 1 1
+ 1.01064 2 3 tcp 1040 ------- 2 1.0 6.0 1 1
- 1.01064 2 3 tcp 1040 ------- 2 1.0 6.0 1 1
r 1.011874 6 5 ack 40 ------- 2 6.0 1.0 0 2
+ 1.011874 5 3 ack 40 ------- 2 6.0 1.0 0 2
- 1.011874 5 3 ack 40 ------- 2 6.0 1.0 0 2
r 1.014331 5 3 ack 40 ------- 2 6.0 1.0 0 2
+ 1.014331 3 2 ack 40 ------- 2 6.0 1.0 0 2
- 1.014331 3 2 ack 40 ------- 2 6.0 1.0 0 2
r 1.016789 3 2 ack 40 ------- 2 6.0 1.0 0 2
+ 1.016789 2 1 ack 40 ------- 2 6.0 1.0 0 2
- 1.016789 2 1 ack 40 ------- 2 6.0 1.0 0 2
r 1.019109 2 1 ack 40 ------- 2 6.0 1.0 0 2
+ 1.019109 1 2 tcp 1040 ------- 2 1.0 6.0 2 3
- 1.019109 1 2 tcp 1040 ------- 2 1.0 6.0 2 3
+ 1.019109 1 2 tcp 1040 ------- 2 1.0 6.0 3 4
r 1.024526 2 3 tcp 1040 ------- 2 1.0 6.0 1 1
+ 1.024526 3 5 tcp 1040 ------- 2 1.0 6.0 1 1
- 1.024526 3 5 tcp 1040 ------- 2 1.0 6.0 1 1
- 1.027429 1 2 tcp 1040 ------- 2 1.0 6.0 3 4
r 1.029429 1 2 tcp 1040 ------- 2 1.0 6.0 2 3
+ 1.029429 2 3 tcp 1040 ------- 2 1.0 6.0 2 3
- 1.029429 2 3 tcp 1040 ------- 2 1.0 6.0 2 3
r 1.037749 1 2 tcp 1040 ------- 2 1.0 6.0 3 4
+ 1.037749 2 3 tcp 1040 ------- 2 1.0 6.0 3 4
r 1.038411 3 5 tcp 1040 ------- 2 1.0 6.0 1 1
+ 1.038411 5 6 tcp 1040 ------- 2 1.0 6.0 1 1
- 1.038411 5 6 tcp 1040 ------- 2 1.0 6.0 1 1
- 1.041314 2 3 tcp 1040 ------- 2 1.0 6.0 3 4
r 1.043314 2 3 tcp 1040 ------- 2 1.0 6.0 2 3
+ 1.043314 3 5 tcp 1040 ------- 2 1.0 6.0 2 3
- 1.043314 3 5 tcp 1040 ------- 2 1.0 6.0 2 3
r 1.048731 5 6 tcp 1040 ------- 2 1.0 6.0 1 1
+ 1.048731 6 5 ack 40 ------- 2 6.0 1.0 1 5
- 1.048731 6 5 ack 40 ------- 2 6.0 1.0 1 5
r 1.051051 6 5 ack 40 ------- 2 6.0 1.0 1 5
+ 1.051051 5 3 ack 40 ------- 2 6.0 1.0 1 5
- 1.051051 5 3 ack 40 ------- 2 6.0 1.0 1 5
r 1.053509 5 3 ack 40 ------- 2 6.0 1.0 1 5
+ 1.053509 3 2 ack 40 ------- 2 6.0 1.0 1 5
- 1.053509 3 2 ack 40 ------- 2 6.0 1.0 1 5
r 1.0552 2 3 tcp 1040 ------- 2 1.0 6.0 3 4
+ 1.0552 3 5 tcp 1040 ------- 2 1.0 6.0 3 4
- 1.0552 3 5 tcp 1040 ------- 2 1.0 6.0 3 4
r 1.055966 3 2 ack 40 ------- 2 6.0 1.0 1 5
+ 1.055966 2 1 ack 40 ------- 2 6.0 1.0 1 5
- 1.055966 2 1 ack 40 ------- 2 6.0 1.0 1 5
r 1.0572 3 5 tcp 1040 ------- 2 1.0 6.0 2 3
+ 1.0572 5 6 tcp 1040 ------- 2 1.0 6.0 2 3
- 1.0572 5 6 tcp 1040 ------- 2 1.0 6.0 2 3
r 1.058286 2 1 ack 40 ------- 2 6.0 1.0 1 5
+ 1.058286 1 2 tcp 1040 ------- 2 1.0 6.0 4 6
- 1.058286 1 2 tcp 1040 ------- 2 1.0 6.0 4 6
+ 1.058286 1 2 tcp 1040 ------- 2 1.0 6.0 5 7
- 1.066606 1 2 tcp 1040 ------- 2 1.0 6.0 5 7
r 1.06752 5 6 tcp 1040 ------- 2 1.0 6.0 2 3
+ 1.06752 6 5 ack 40 ------- 2 6.0 1.0 2 8
- 1.06752 6 5 ack 40 ------- 2 6.0 1.0 2 8
r 1.068606 1 2 tcp 1040 ------- 2 1.0 6.0 4 6
+ 1.068606 2 3 tcp 1040 ------- 2 1.0 6.0 4 6
- 1.068606 2 3 tcp 1040 ------- 2 1.0 6.0 4 6
r 1.069086 3 5 tcp 1040 ------- 2 1.0 6.0 3 4
+ 1.069086 5 6 tcp 1040 ------- 2 1.0 6.0 3 4
- 1.069086 5 6 tcp 1040 ------- 2 1.0 6.0 3 4
r 1.06984 6 5 ack 40 ------- 2 6.0 1.0 2 8
+ 1.06984 5 3 ack 40 ------- 2 6.0 1.0 2 8
- 1.06984 5 3 ack 40 ------- 2 6.0 1.0 2 8
r 1.072297 5 3 ack 40 ------- 2 6.0 1.0 2 8
+ 1.072297 3 2 ack 40 ------- 2 6.0 1.0 2 8
- 1.072297 3 2 ack 40 ------- 2 6.0 1.0 2 8
r 1.074754 3 2 ack 40 ------- 2 6.0 1.0 2 8
+ 1.074754 2 1 ack 40 ------- 2 6.0 1.0 2 8
- 1.074754 2 1 ack 40 ------- 2 6.0 1.0 2 8
r 1.076926 1 2 tcp 1040 ------- 2 1.0 6.0 5 7
+ 1.076926 2 3 tcp 1040 ------- 2 1.0 6.0 5 7
r 1.077074 2 1 ack 40 ------- 2 6.0 1.0 2 8
+ 1.077074 1 2 tcp 1040 ------- 2 1.0 6.0 6 9
- 1.077074 1 2 tcp 1040 ------- 2 1.0 6.0 6 9
+ 1.077074 1 2 tcp 1040 ------- 2 1.0 6.0 7 10
r 1.079406 5 6 tcp 1040 ------- 2 1.0 6.0 3 4
+ 1.079406 6 5 ack 40 ------- 2 6.0 1.0 3 11
- 1.079406 6 5 ack 40 ------- 2 6.0 1.0 3 11
- 1.080491 2 3 tcp 1040 ------- 2 1.0 6.0 5 7
r 1.081726 6 5 ack 40 ------- 2 6.0 1.0 3 11
+ 1.081726 5 3 ack 40 ------- 2 6.0 1.0 3 11
- 1.081726 5 3 ack 40 ------- 2 6.0 1.0 3 11
r 1.082491 2 3 tcp 1040 ------- 2 1.0 6.0 4 6
+ 1.082491 3 5 tcp 1040 ------- 2 1.0 6.0 4 6
- 1.082491 3 5 tcp 1040 ------- 2 1.0 6.0 4 6
r 1.084183 5 3 ack 40 ------- 2 6.0 1.0 3 11
+ 1.084183 3 2 ack 40 ------- 2 6.0 1.0 3 11
- 1.084183 3 2 ack 40 ------- 2 6.0 1.0 3 11
- 1.085394 1 2 tcp 1040 ------- 2 1.0 6.0 7 10
r 1.08664 3 2 ack 40 ------- 2 6.0 1.0 3 11
+ 1.08664 2 1 ack 40 ------- 2 6.0 1.0 3 11
- 1.08664 2 1 ack 40 ------- 2 6.0 1.0 3 11
r 1.087394 1 2 tcp 1040 ------- 2 1.0 6.0 6 9
+ 1.087394 2 3 tcp 1040 ------- 2 1.0 6.0 6 9
r 1.08896 2 1 ack 40 ------- 2 6.0 1.0 3 11
+ 1.08896 1 2 tcp 1040 ------- 2 1.0 6.0 8 12
+ 1.08896 1 2 tcp 1040 ------- 2 1.0 6.0 9 13
- 1.092377 2 3 tcp 1040 ------- 2 1.0 6.0 6 9
- 1.093714 1 2 tcp 1040 ------- 2 1.0 6.0 8 12
r 1.094377 2 3 tcp 1040 ------- 2 1.0 6.0 5 7
+ 1.094377 3 5 tcp 1040 ------- 2 1.0 6.0 5 7
- 1.094377 3 5 tcp 1040 ------- 2 1.0 6.0 5 7
r 1.095714 1 2 tcp 1040 ------- 2 1.0 6.0 7 10
+ 1.095714 2 3 tcp 1040 ------- 2 1.0 6.0 7 10
r 1.096377 3 5 tcp 1040 ------- 2 1.0 6.0 4 6
+ 1.096377 5 6 tcp 1040 ------- 2 1.0 6.0 4 6
- 1.096377 5 6 tcp 1040 ------- 2 1.0 6.0 4 6
- 1.102034 1 2 tcp 1040 ------- 2 1.0 6.0 9 13
r 1.104034 1 2 tcp 1040 ------- 2 1.0 6.0 8 12
+ 1.104034 2 3 tcp 1040 ------- 2 1.0 6.0 8 12
- 1.104263 2 3 tcp 1040 ------- 2 1.0 6.0 7 10
r 1.106263 2 3 tcp 1040 ------- 2 1.0 6.0 6 9
+ 1.106263 3 5 tcp 1040 ------- 2 1.0 6.0 6 9
- 1.106263 3 5 tcp 1040 ------- 2 1.0 6.0 6 9
r 1.106697 5 6 tcp 1040 ------- 2 1.0 6.0 4 6
+ 1.106697 6 5 ack 40 ------- 2 6.0 1.0 4 14
- 1.106697 6 5 ack 40 ------- 2 6.0 1.0 4 14
r 1.108263 3 5 tcp 1040 ------- 2 1.0 6.0 5 7
+ 1.108263 5 6 tcp 1040 ------- 2 1.0 6.0 5 7
- 1.108263 5 6 tcp 1040 ------- 2 1.0 6.0 5 7
r 1.109017 6 5 ack 40 ------- 2 6.0 1.0 4 14
+ 1.109017 5 3 ack 40 ------- 2 6.0 1.0 4 14
- 1.109017 5 3 ack 40 ------- 2 6.0 1.0 4 14
r 1.111474 5 3 ack 40 ------- 2 6.0 1.0 4 14
+ 1.111474 3 2 ack 40 ------- 2 6.0 1.0 4 14
- 1.111474 3 2 ack 40 ------- 2 6.0 1.0 4 14
r 1.112354 1 2 tcp 1040 ------- 2 1.0 6.0 9 13
+ 1.112354 2 3 tcp 1040 ------- 2 1.0 6.0 9 13
r 1.113931 3 2 ack 40 ------- 2 6.0 1.0 4 14
+ 1.113931 2 1 ack 40 ------- 2 6.0 1.0 4 14
- 1.113931 2 1 ack 40 ------- 2 6.0 1.0 4 14
- 1.116149 2 3 tcp 1040 ------- 2 1.0 6.0 8 12
r 1.116251 2 1 ack 40 ------- 2 6.0 1.0 4 14
+ 1.116251 1 2 tcp 1040 ------- 2 1.0 6.0 10 15
- 1.116251 1 2 tcp 1040 ------- 2 1.0 6.0 10 15
+ 1.116251 1 2 tcp 1040 ------- 2 1.0 6.0 11 16
r 1.118149 2 3 tcp 1040 ------- 2 1.0 6.0 7 10
+ 1.118149 3 5 tcp 1040 ------- 2 1.0 6.0 7 10
- 1.118149 3 5 tcp 1040 ------- 2 1.0 6.0 7 10
r 1.118583 5 6 tcp 1040 ------- 2 1.0 6.0 5 7
+ 1.118583 6 5 ack 40 ------- 2 6.0 1.0 5 17
- 1.118583 6 5 ack 40 ------- 2 6.0 1.0 5 17
r 1.120149 3 5 tcp 1040 ------- 2 1.0 6.0 6 9
+ 1.120149 5 6 tcp 1040 ------- 2 1.0 6.0 6 9
- 1.120149 5 6 tcp 1040 ------- 2 1.0 6.0 6 9
r 1.120903 6 5 ack 40 ------- 2 6.0 1.0 5 17
+ 1.120903 5 3 ack 40 ------- 2 6.0 1.0 5 17
- 1.120903 5 3 ack 40 ------- 2 6.0 1.0 5 17
r 1.12336 5 3 ack 40 ------- 2 6.0 1.0 5 17
+ 1.12336 3 2 ack 40 ------- 2 6.0 1.0 5 17
- 1.12336 3 2 ack 40 ------- 2 6.0 1.0 5 17
- 1.124571 1 2 tcp 1040 ------- 2 1.0 6.0 11 16
r 1.125817 3 2 ack 40 ------- 2 6.0 1.0 5 17
+ 1.125817 2 1 ack 40 ------- 2 6.0 1.0 5 17
- 1.125817 2 1 ack 40 ------- 2 6.0 1.0 5 17
r 1.126571 1 2 tcp 1040 ------- 2 1.0 6.0 10 15
+ 1.126571 2 3 tcp 1040 ------- 2 1.0 6.0 10 15
- 1.128034 2 3 tcp 1040 ------- 2 1.0 6.0 9 13
r 1.128137 2 1 ack 40 ------- 2 6.0 1.0 5 17
+ 1.128137 1 2 tcp 1040 ------- 2 1.0 6.0 12 18
+ 1.128137 1 2 tcp 1040 ------- 2 1.0 6.0 13 19
r 1.130034 2 3 tcp 1040 ------- 2 1.0 6.0 8 12
+ 1.130034 3 5 tcp 1040 ------- 2 1.0 6.0 8 12
- 1.130034 3 5 tcp 1040 ------- 2 1.0 6.0 8 12
r 1.130469 5 6 tcp 1040 ------- 2 1.0 6.0 6 9
+ 1.130469 6 5 ack 40 ------- 2 6.0 1.0 6 20
- 1.130469 6 5 ack 40 ------- 2 6.0 1.0 6 20
r 1.132034 3 5 tcp 1040 ------- 2 1.0 6.0 7 10
+ 1.132034 5 6 tcp 1040 ------- 2 1.0 6.0 7 10
- 1.132034 5 6 tcp 1040 ------- 2 1.0 6.0 7 10
r 1.132789 6 5 ack 40 ------- 2 6.0 1.0 6 20
+ 1.132789 5 3 ack 40 ------- 2 6.0 1.0 6 20
- 1.132789 5 3 ack 40 ------- 2 6.0 1.0 6 20
- 1.132891 1 2 tcp 1040 ------- 2 1.0 6.0 12 18
r 1.134891 1 2 tcp 1040 ------- 2 1.0 6.0 11 16
+ 1.134891 2 3 tcp 1040 ------- 2 1.0 6.0 11 16
r 1.135246 5 3 ack 40 ------- 2 6.0 1.0 6 20
+ 1.135246 3 2 ack 40 ------- 2 6.0 1.0 6 20
- 1.135246 3 2 ack 40 ------- 2 6.0 1.0 6 20
r 1.137703 3 2 ack 40 ------- 2 6.0 1.0 6 20
+ 1.137703 2 1 ack 40 ------- 2 6.0 1.0 6 20
- 1.137703 2 1 ack 40 ------- 2 6.0 1.0 6 20
- 1.13992 2 3 tcp 1040 ------- 2 1.0 6.0 10 15
r 1.140023 2 1 ack 40 ------- 2 6.0 1.0 6 20
+ 1.140023 1 2 tcp 1040 ------- 2 1.0 6.0 14 21
+ 1.140023 1 2 tcp 1040 ------- 2 1.0 6.0 15 22
- 1.141211 1 2 tcp 1040 ------- 2 1.0 6.0 13 19
r 1.14192 2 3 tcp 1040 ------- 2 1.0 6.0 9 13
+ 1.14192 3 5 tcp 1040 ------- 2 1.0 6.0 9 13
- 1.14192 3 5 tcp 1040 ------- 2 1.0 6.0 9 13
r 1.142354 5 6 tcp 1040 ------- 2 1.0 6.0 7 10
+ 1.142354 6 5 ack 40 ------- 2 6.0 1.0 7 23
- 1.142354 6 5 ack 40 ------- 2 6.0 1.0 7 23
r 1.143211 1 2 tcp 1040 ------- 2 1.0 6.0 12 18
+ 1.143211 2 3 tcp 1040 ------- 2 1.0 6.0 12 18
r 1.14392 3 5 tcp 1040 ------- 2 1.0 6.0 8 12
+ 1.14392 5 6 tcp 1040 ------- 2 1.0 6.0 8 12
- 1.14392 5 6 tcp 1040 ------- 2 1.0 6.0 8 12
r 1.144674 6 5 ack 40 ------- 2 6.0 1.0 7 23
+ 1.144674 5 3 ack 40 ------- 2 6.0 1.0 7 23
- 1.144674 5 3 ack 40 ------- 2 6.0 1.0 7 23
r 1.147131 5 3 ack 40 ------- 2 6.0 1.0 7 23
+ 1.147131 3 2 ack 40 ------- 2 6.0 1.0 7 23
- 1.147131 3 2 ack 40 ------- 2 6.0 1.0 7 23
- 1.149531 1 2 tcp 1040 ------- 2 1.0 6.0 14 21
r 1.149589 3 2 ack 40 ------- 2 6.0 1.0 7 23
+ 1.149589 2 1 ack 40 ------- 2 6.0 1.0 7 23
- 1.149589 2 1 ack 40 ------- 2 6.0 1.0 7 23
r 1.151531 1 2 tcp 1040 ------- 2 1.0 6.0 13 19
+ 1.151531 2 3 tcp 1040 ------- 2 1.0 6.0 13 19
- 1.151806 2 3 tcp 1040 ------- 2 1.0 6.0 11 16
r 1.151909 2 1 ack 40 ------- 2 6.0 1.0 7 23
+ 1.151909 1 2 tcp 1040 ------- 2 1.0 6.0 16 24
+ 1.151909 1 2 tcp 1040 ------- 2 1.0 6.0 17 25
r 1.153806 2 3 tcp 1040 ------- 2 1.0 6.0 10 15
+ 1.153806 3 5 tcp 1040 ------- 2 1.0 6.0 10 15
- 1.153806 3 5 tcp 1040 ------- 2 1.0 6.0 10 15
r 1.15424 5 6 tcp 1040 ------- 2 1.0 6.0 8 12
+ 1.15424 6 5 ack 40 ------- 2 6.0 1.0 8 26
- 1.15424 6 5 ack 40 ------- 2 6.0 1.0 8 26
r 1.155806 3 5 tcp 1040 ------- 2 1.0 6.0 9 13
+ 1.155806 5 6 tcp 1040 ------- 2 1.0 6.0 9 13
- 1.155806 5 6 tcp 1040 ------- 2 1.0 6.0 9 13
r 1.15656 6 5 ack 40 ------- 2 6.0 1.0 8 26
+ 1.15656 5 3 ack 40 ------- 2 6.0 1.0 8 26
- 1.15656 5 3 ack 40 ------- 2 6.0 1.0 8 26
- 1.157851 1 2 tcp 1040 ------- 2 1.0 6.0 15 22
r 1.159017 5 3 ack 40 ------- 2 6.0 1.0 8 26
+ 1.159017 3 2 ack 40 ------- 2 6.0 1.0 8 26
- 1.159017 3 2 ack 40 ------- 2 6.0 1.0 8 26
r 1.159851 1 2 tcp 1040 ------- 2 1.0 6.0 14 21
+ 1.159851 2 3 tcp 1040 ------- 2 1.0 6.0 14 21
r 1.161474 3 2 ack 40 ------- 2 6.0 1.0 8 26
+ 1.161474 2 1 ack 40 ------- 2 6.0 1.0 8 26
- 1.161474 2 1 ack 40 ------- 2 6.0 1.0 8 26
- 1.163691 2 3 tcp 1040 ------- 2 1.0 6.0 12 18
r 1.163794 2 1 ack 40 ------- 2 6.0 1.0 8 26
+ 1.163794 1 2 tcp 1040 ------- 2 1.0 6.0 18 27
+ 1.163794 1 2 tcp 1040 ------- 2 1.0 6.0 19 28
r 1.165691 2 3 tcp 1040 ------- 2 1.0 6.0 11 16
+ 1.165691 3 5 tcp 1040 ------- 2 1.0 6.0 11 16
- 1.165691 3 5 tcp 1040 ------- 2 1.0 6.0 11 16
r 1.166126 5 6 tcp 1040 ------- 2 1.0 6.0 9 13
+ 1.166126 6 5 ack 40 ------- 2 6.0 1.0 9 29
- 1.166126 6 5 ack 40 ------- 2 6.0 1.0 9 29
- 1.166171 1 2 tcp 1040 ------- 2 1.0 6.0 16 24
r 1.167691 3 5 tcp 1040 ------- 2 1.0 6.0 10 15
+ 1.167691 5 6 tcp 1040 ------- 2 1.0 6.0 10 15
- 1.167691 5 6 tcp 1040 ------- 2 1.0 6.0 10 15
r 1.168171 1 2 tcp 1040 ------- 2 1.0 6.0 15 22
+ 1.168171 2 3 tcp 1040 ------- 2 1.0 6.0 15 22
r 1.168446 6 5 ack 40 ------- 2 6.0 1.0 9 29
+ 1.168446 5 3 ack 40 ------- 2 6.0 1.0 9 29
- 1.168446 5 3 ack 40 ------- 2 6.0 1.0 9 29
r 1.170903 5 3 ack 40 ------- 2 6.0 1.0 9 29
+ 1.170903 3 2 ack 40 ------- 2 6.0 1.0 9 29
- 1.170903 3 2 ack 40 ------- 2 6.0 1.0 9 29
r 1.17336 3 2 ack 40 ------- 2 6.0 1.0 9 29
+ 1.17336 2 1 ack 40 ------- 2 6.0 1.0 9 29
- 1.17336 2 1 ack 40 ------- 2 6.0 1.0 9 29
- 1.174491 1 2 tcp 1040 ------- 2 1.0 6.0 17 25
- 1.175577 2 3 tcp 1040 ------- 2 1.0 6.0 13 19
r 1.17568 2 1 ack 40 ------- 2 6.0 1.0 9 29
+ 1.17568 1 2 tcp 1040 ------- 2 1.0 6.0 20 30
+ 1.17568 1 2 tcp 1040 ------- 2 1.0 6.0 21 31
r 1.176491 1 2 tcp 1040 ------- 2 1.0 6.0 16 24
+ 1.176491 2 3 tcp 1040 ------- 2 1.0 6.0 16 24
r 1.177577 2 3 tcp 1040 ------- 2 1.0 6.0 12 18
+ 1.177577 3 5 tcp 1040 ------- 2 1.0 6.0 12 18
- 1.177577 3 5 tcp 1040 ------- 2 1.0 6.0 12 18
r 1.178011 5 6 tcp 1040 ------- 2 1.0 6.0 10 15
+ 1.178011 6 5 ack 40 ------- 2 6.0 1.0 10 32
- 1.178011 6 5 ack 40 ------- 2 6.0 1.0 10 32
r 1.179577 3 5 tcp 1040 ------- 2 1.0 6.0 11 16
+ 1.179577 5 6 tcp 1040 ------- 2 1.0 6.0 11 16
- 1.179577 5 6 tcp 1040 ------- 2 1.0 6.0 11 16
r 1.180331 6 5 ack 40 ------- 2 6.0 1.0 10 32
+ 1.180331 5 3 ack 40 ------- 2 6.0 1.0 10 32
- 1.180331 5 3 ack 40 ------- 2 6.0 1.0 10 32
r 1.182789 5 3 ack 40 ------- 2 6.0 1.0 10 32
+ 1.182789 3 2 ack 40 ------- 2 6.0 1.0 10 32
- 1.182789 3 2 ack 40 ------- 2 6.0 1.0 10 32
- 1.182811 1 2 tcp 1040 ------- 2 1.0 6.0 18 27
r 1.184811 1 2 tcp 1040 ------- 2 1.0 6.0 17 25
+ 1.184811 2 3 tcp 1040 ------- 2 1.0 6.0 17 25
r 1.185246 3 2 ack 40 ------- 2 6.0 1.0 10 32
+ 1.185246 2 1 ack 40 ------- 2 6.0 1.0 10 32
- 1.185246 2 1 ack 40 ------- 2 6.0 1.0 10 32
- 1.187463 2 3 tcp 1040 ------- 2 1.0 6.0 14 21
r 1.187566 2 1 ack 40 ------- 2 6.0 1.0 10 32
+ 1.187566 1 2 tcp 1040 ------- 2 1.0 6.0 22 33
+ 1.187566 1 2 tcp 1040 ------- 2 1.0 6.0 23 34
r 1.189463 2 3 tcp 1040 ------- 2 1.0 6.0 13 19
+ 1.189463 3 5 tcp 1040 ------- 2 1.0 6.0 13 19
- 1.189463 3 5 tcp 1040 ------- 2 1.0 6.0 13 19
r 1.189897 5 6 tcp 1040 ------- 2 1.0 6.0 11 16
+ 1.189897 6 5 ack 40 ------- 2 6.0 1.0 11 35
- 1.189897 6 5 ack 40 ------- 2 6.0 1.0 11 35
- 1.191131 1 2 tcp 1040 ------- 2 1.0 6.0 19 28
r 1.191463 3 5 tcp 1040 ------- 2 1.0 6.0 12 18
+ 1.191463 5 6 tcp 1040 ------- 2 1.0 6.0 12 18
- 1.191463 5 6 tcp 1040 ------- 2 1.0 6.0 12 18
r 1.192217 6 5 ack 40 ------- 2 6.0 1.0 11 35
+ 1.192217 5 3 ack 40 ------- 2 6.0 1.0 11 35
- 1.192217 5 3 ack 40 ------- 2 6.0 1.0 11 35
r 1.193131 1 2 tcp 1040 ------- 2 1.0 6.0 18 27
+ 1.193131 2 3 tcp 1040 ------- 2 1.0 6.0 18 27
r 1.194674 5 3 ack 40 ------- 2 6.0 1.0 11 35
+ 1.194674 3 2 ack 40 ------- 2 6.0 1.0 11 35
- 1.194674 3 2 ack 40 ------- 2 6.0 1.0 11 35
r 1.197131 3 2 ack 40 ------- 2 6.0 1.0 11 35
+ 1.197131 2 1 ack 40 ------- 2 6.0 1.0 11 35
- 1.197131 2 1 ack 40 ------- 2 6.0 1.0 11 35
- 1.199349 2 3 tcp 1040 ------- 2 1.0 6.0 15 22
r 1.199451 2 1 ack 40 ------- 2 6.0 1.0 11 35
+ 1.199451 1 2 tcp 1040 ------- 2 1.0 6.0 24 36
+ 1.199451 1 2 tcp 1040 ------- 2 1.0 6.0 25 37
- 1.199451 1 2 tcp 1040 ------- 2 1.0 6.0 20 30
r 1.201349 2 3 tcp 1040 ------- 2 1.0 6.0 14 21
+ 1.201349 3 5 tcp 1040 ------- 2 1.0 6.0 14 21
- 1.201349 3 5 tcp 1040 ------- 2 1.0 6.0 14 21
r 1.201451 1 2 tcp 1040 ------- 2 1.0 6.0 19 28
+ 1.201451 2 3 tcp 1040 ------- 2 1.0 6.0 19 28
r 1.201783 5 6 tcp 1040 ------- 2 1.0 6.0 12 18
+ 1.201783 6 5 ack 40 ------- 2 6.0 1.0 12 38
- 1.201783 6 5 ack 40 ------- 2 6.0 1.0 12 38
r 1.203349 3 5 tcp 1040 ------- 2 1.0 6.0 13 19
+ 1.203349 5 6 tcp 1040 ------- 2 1.0 6.0 13 19
- 1.203349 5 6 tcp 1040 ------- 2 1.0 6.0 13 19
r 1.204103 6 5 ack 40 ------- 2 6.0 1.0 12 38
+ 1.204103 5 3 ack 40 ------- 2 6.0 1.0 12 38
- 1.204103 5 3 ack 40 ------- 2 6.0 1.0 12 38
r 1.20656 5 3 ack 40 ------- 2 6.0 1.0 12 38
+ 1.20656 3 2 ack 40 ------- 2 6.0 1.0 12 38
- 1.20656 3 2 ack 40 ------- 2 6.0 1.0 12 38
- 1.207771 1 2 tcp 1040 ------- 2 1.0 6.0 21 31
r 1.209017 3 2 ack 40 ------- 2 6.0 1.0 12 38
+ 1.209017 2 1 ack 40 ------- 2 6.0 1.0 12 38
- 1.209017 2 1 ack 40 ------- 2 6.0 1.0 12 38
r 1.209771 1 2 tcp 1040 ------- 2 1.0 6.0 20 30
+ 1.209771 2 3 tcp 1040 ------- 2 1.0 6.0 20 30
- 1.211234 2 3 tcp 1040 ------- 2 1.0 6.0 16 24
r 1.211337 2 1 ack 40 ------- 2 6.0 1.0 12 38
+ 1.211337 1 2 tcp 1040 ------- 2 1.0 6.0 26 39
+ 1.211337 1 2 tcp 1040 ------- 2 1.0 6.0 27 40
r 1.213234 2 3 tcp 1040 ------- 2 1.0 6.0 15 22
+ 1.213234 3 5 tcp 1040 ------- 2 1.0 6.0 15 22
- 1.213234 3 5 tcp 1040 ------- 2 1.0 6.0 15 22
r 1.213669 5 6 tcp 1040 ------- 2 1.0 6.0 13 19
+ 1.213669 6 5 ack 40 ------- 2 6.0 1.0 13 41
- 1.213669 6 5 ack 40 ------- 2 6.0 1.0 13 41
r 1.215234 3 5 tcp 1040 ------- 2 1.0 6.0 14 21
+ 1.215234 5 6 tcp 1040 ------- 2 1.0 6.0 14 21
- 1.215234 5 6 tcp 1040 ------- 2 1.0 6.0 14 21
r 1.215989 6 5 ack 40 ------- 2 6.0 1.0 13 41
+ 1.215989 5 3 ack 40 ------- 2 6.0 1.0 13 41
- 1.215989 5 3 ack 40 ------- 2 6.0 1.0 13 41
- 1.216091 1 2 tcp 1040 ------- 2 1.0 6.0 22 33
r 1.218091 1 2 tcp 1040 ------- 2 1.0 6.0 21 31
+ 1.218091 2 3 tcp 1040 ------- 2 1.0 6.0 21 31
r 1.218446 5 3 ack 40 ------- 2 6.0 1.0 13 41
+ 1.218446 3 2 ack 40 ------- 2 6.0 1.0 13 41
- 1.218446 3 2 ack 40 ------- 2 6.0 1.0 13 41
r 1.220903 3 2 ack 40 ------- 2 6.0 1.0 13 41
+ 1.220903 2 1 ack 40 ------- 2 6.0 1.0 13 41
- 1.220903 2 1 ack 40 ------- 2 6.0 1.0 13 41
- 1.22312 2 3 tcp 1040 ------- 2 1.0 6.0 17 25
r 1.223223 2 1 ack 40 ------- 2 6.0 1.0 13 41
+ 1.223223 1 2 tcp 1040 ------- 2 1.0 6.0 28 42
+ 1.223223 1 2 tcp 1040 ------- 2 1.0 6.0 29 43
- 1.224411 1 2 tcp 1040 ------- 2 1.0 6.0 23 34
r 1.22512 2 3 tcp 1040 ------- 2 1.0 6.0 16 24
+ 1.22512 3 5 tcp 1040 ------- 2 1.0 6.0 16 24
- 1.22512 3 5 tcp 1040 ------- 2 1.0 6.0 16 24
r 1.225554 5 6 tcp 1040 ------- 2 1.0 6.0 14 21
+ 1.225554 6 5 ack 40 ------- 2 6.0 1.0 14 44
- 1.225554 6 5 ack 40 ------- 2 6.0 1.0 14 44
r 1.226411 1 2 tcp 1040 ------- 2 1.0 6.0 22 33
+ 1.226411 2 3 tcp 1040 ------- 2 1.0 6.0 22 33
r 1.22712 3 5 tcp 1040 ------- 2 1.0 6.0 15 22
+ 1.22712 5 6 tcp 1040 ------- 2 1.0 6.0 15 22
- 1.22712 5 6 tcp 1040 ------- 2 1.0 6.0 15 22
r 1.227874 6 5 ack 40 ------- 2 6.0 1.0 14 44
+ 1.227874 5 3 ack 40 ------- 2 6.0 1.0 14 44
- 1.227874 5 3 ack 40 ------- 2 6.0 1.0 14 44
r 1.230331 5 3 ack 40 ------- 2 6.0 1.0 14 44
+ 1.230331 3 2 ack 40 ------- 2 6.0 1.0 14 44
- 1.230331 3 2 ack 40 ------- 2 6.0 1.0 14 44
- 1.232731 1 2 tcp 1040 ------- 2 1.0 6.0 24 36
r 1.232789 3 2 ack 40 ------- 2 6.0 1.0 14 44
+ 1.232789 2 1 ack 40 ------- 2 6.0 1.0 14 44
- 1.232789 2 1 ack 40 ------- 2 6.0 1.0 14 44
r 1.234731 1 2 tcp 1040 ------- 2 1.0 6.0 23 34
+ 1.234731 2 3 tcp 1040 ------- 2 1.0 6.0 23 34
- 1.235006 2 3 tcp 1040 ------- 2 1.0 6.0 18 27
r 1.235109 2 1 ack 40 ------- 2 6.0 1.0 14 44
+ 1.235109 1 2 tcp 1040 ------- 2 1.0 6.0 30 45
+ 1.235109 1 2 tcp 1040 ------- 2 1.0 6.0 31 46
r 1.237006 2 3 tcp 1040 ------- 2 1.0 6.0 17 25
+ 1.237006 3 5 tcp 1040 ------- 2 1.0 6.0 17 25
- 1.237006 3 5 tcp 1040 ------- 2 1.0 6.0 17 25
r 1.23744 5 6 tcp 1040 ------- 2 1.0 6.0 15 22
+ 1.23744 6 5 ack 40 ------- 2 6.0 1.0 15 47
- 1.23744 6 5 ack 40 ------- 2 6.0 1.0 15 47
r 1.239006 3 5 tcp 1040 ------- 2 1.0 6.0 16 24
+ 1.239006 5 6 tcp 1040 ------- 2 1.0 6.0 16 24
- 1.239006 5 6 tcp 1040 ------- 2 1.0 6.0 16 24
r 1.23976 6 5 ack 40 ------- 2 6.0 1.0 15 47
+ 1.23976 5 3 ack 40 ------- 2 6.0 1.0 15 47
- 1.23976 5 3 ack 40 ------- 2 6.0 1.0 15 47
- 1.241051 1 2 tcp 1040 ------- 2 1.0 6.0 25 37
r 1.242217 5 3 ack 40 ------- 2 6.0 1.0 15 47
+ 1.242217 3 2 ack 40 ------- 2 6.0 1.0 15 47
- 1.242217 3 2 ack 40 ------- 2 6.0 1.0 15 47
r 1.243051 1 2 tcp 1040 ------- 2 1.0 6.0 24 36
+ 1.243051 2 3 tcp 1040 ------- 2 1.0 6.0 24 36
r 1.244674 3 2 ack 40 ------- 2 6.0 1.0 15 47
+ 1.244674 2 1 ack 40 ------- 2 6.0 1.0 15 47
- 1.244674 2 1 ack 40 ------- 2 6.0 1.0 15 47
- 1.246891 2 3 tcp 1040 ------- 2 1.0 6.0 19 28
r 1.246994 2 1 ack 40 ------- 2 6.0 1.0 15 47
+ 1.246994 1 2 tcp 1040 ------- 2 1.0 6.0 32 48
+ 1.246994 1 2 tcp 1040 ------- 2 1.0 6.0 33 49
r 1.248891 2 3 tcp 1040 ------- 2 1.0 6.0 18 27
+ 1.248891 3 5 tcp 1040 ------- 2 1.0 6.0 18 27
- 1.248891 3 5 tcp 1040 ------- 2 1.0 6.0 18 27
r 1.249326 5 6 tcp 1040 ------- 2 1.0 6.0 16 24
+ 1.249326 6 5 ack 40 ------- 2 6.0 1.0 16 50
- 1.249326 6 5 ack 40 ------- 2 6.0 1.0 16 50
- 1.249371 1 2 tcp 1040 ------- 2 1.0 6.0 26 39
r 1.250891 3 5 tcp 1040 ------- 2 1.0 6.0 17 25
+ 1.250891 5 6 tcp 1040 ------- 2 1.0 6.0 17 25
- 1.250891 5 6 tcp 1040 ------- 2 1.0 6.0 17 25
r 1.251371 1 2 tcp 1040 ------- 2 1.0 6.0 25 37
+ 1.251371 2 3 tcp 1040 ------- 2 1.0 6.0 25 37
r 1.251646 6 5 ack 40 ------- 2 6.0 1.0 16 50
+ 1.251646 5 3 ack 40 ------- 2 6.0 1.0 16 50
- 1.251646 5 3 ack 40 ------- 2 6.0 1.0 16 50
r 1.254103 5 3 ack 40 ------- 2 6.0 1.0 16 50
+ 1.254103 3 2 ack 40 ------- 2 6.0 1.0 16 50
- 1.254103 3 2 ack 40 ------- 2 6.0 1.0 16 50
r 1.25656 3 2 ack 40 ------- 2 6.0 1.0 16 50
+ 1.25656 2 1 ack 40 ------- 2 6.0 1.0 16 50
- 1.25656 2 1 ack 40 ------- 2 6.0 1.0 16 50
- 1.257691 1 2 tcp 1040 ------- 2 1.0 6.0 27 40
- 1.258777 2 3 tcp 1040 ------- 2 1.0 6.0 20 30
r 1.25888 2 1 ack 40 ------- 2 6.0 1.0 16 50
+ 1.25888 1 2 tcp 1040 ------- 2 1.0 6.0 34 51
+ 1.25888 1 2 tcp 1040 ------- 2 1.0 6.0 35 52
r 1.259691 1 2 tcp 1040 ------- 2 1.0 6.0 26 39
+ 1.259691 2 3 tcp 1040 ------- 2 1.0 6.0 26 39
r 1.260777 2 3 tcp 1040 ------- 2 1.0 6.0 19 28
+ 1.260777 3 5 tcp 1040 ------- 2 1.0 6.0 19 28
- 1.260777 3 5 tcp 1040 ------- 2 1.0 6.0 19 28
r 1.261211 5 6 tcp 1040 ------- 2 1.0 6.0 17 25
+ 1.261211 6 5 ack 40 ------- 2 6.0 1.0 17 53
- 1.261211 6 5 ack 40 ------- 2 6.0 1.0 17 53
r 1.262777 3 5 tcp 1040 ------- 2 1.0 6.0 18 27
+ 1.262777 5 6 tcp 1040 ------- 2 1.0 6.0 18 27
- 1.262777 5 6 tcp 1040 ------- 2 1.0 6.0 18 27
r 1.263531 6 5 ack 40 ------- 2 6.0 1.0 17 53
+ 1.263531 5 3 ack 40 ------- 2 6.0 1.0 17 53
- 1.263531 5 3 ack 40 ------- 2 6.0 1.0 17 53
r 1.265989 5 3 ack 40 ------- 2 6.0 1.0 17 53
+ 1.265989 3 2 ack 40 ------- 2 6.0 1.0 17 53
- 1.265989 3 2 ack 40 ------- 2 6.0 1.0 17 53
- 1.266011 1 2 tcp 1040 ------- 2 1.0 6.0 28 42
r 1.268011 1 2 tcp 1040 ------- 2 1.0 6.0 27 40
+ 1.268011 2 3 tcp 1040 ------- 2 1.0 6.0 27 40
r 1.268446 3 2 ack 40 ------- 2 6.0 1.0 17 53
+ 1.268446 2 1 ack 40 ------- 2 6.0 1.0 17 53
- 1.268446 2 1 ack 40 ------- 2 6.0 1.0 17 53
- 1.270663 2 3 tcp 1040 ------- 2 1.0 6.0 21 31
r 1.270766 2 1 ack 40 ------- 2 6.0 1.0 17 53
+ 1.270766 1 2 tcp 1040 ------- 2 1.0 6.0 36 54
+ 1.270766 1 2 tcp 1040 ------- 2 1.0 6.0 37 55
r 1.272663 2 3 tcp 1040 ------- 2 1.0 6.0 20 30
+ 1.272663 3 5 tcp 1040 ------- 2 1.0 6.0 20 30
- 1.272663 3 5 tcp 1040 ------- 2 1.0 6.0 20 30
r 1.273097 5 6 tcp 1040 ------- 2 1.0 6.0 18 27
+ 1.273097 6 5 ack 40 ------- 2 6.0 1.0 18 56
- 1.273097 6 5 ack 40 ------- 2 6.0 1.0 18 56
- 1.274331 1 2 tcp 1040 ------- 2 1.0 6.0 29 43
r 1.274663 3 5 tcp 1040 ------- 2 1.0 6.0 19 28
+ 1.274663 5 6 tcp 1040 ------- 2 1.0 6.0 19 28
- 1.274663 5 6 tcp 1040 ------- 2 1.0 6.0 19 28
r 1.275417 6 5 ack 40 ------- 2 6.0 1.0 18 56
+ 1.275417 5 3 ack 40 ------- 2 6.0 1.0 18 56
- 1.275417 5 3 ack 40 ------- 2 6.0 1.0 18 56
r 1.276331 1 2 tcp 1040 ------- 2 1.0 6.0 28 42
+ 1.276331 2 3 tcp 1040 ------- 2 1.0 6.0 28 42
r 1.277874 5 3 ack 40 ------- 2 6.0 1.0 18 56
+ 1.277874 3 2 ack 40 ------- 2 6.0 1.0 18 56
- 1.277874 3 2 ack 40 ------- 2 6.0 1.0 18 56
r 1.280331 3 2 ack 40 ------- 2 6.0 1.0 18 56
+ 1.280331 2 1 ack 40 ------- 2 6.0 1.0 18 56
- 1.280331 2 1 ack 40 ------- 2 6.0 1.0 18 56
- 1.282549 2 3 tcp 1040 ------- 2 1.0 6.0 22 33
r 1.282651 2 1 ack 40 ------- 2 6.0 1.0 18 56
+ 1.282651 1 2 tcp 1040 ------- 2 1.0 6.0 38 57
- 1.282651 1 2 tcp 1040 ------- 2 1.0 6.0 30 45
r 1.284549 2 3 tcp 1040 ------- 2 1.0 6.0 21 31
+ 1.284549 3 5 tcp 1040 ------- 2 1.0 6.0 21 31
- 1.284549 3 5 tcp 1040 ------- 2 1.0 6.0 21 31
r 1.284651 1 2 tcp 1040 ------- 2 1.0 6.0 29 43
+ 1.284651 2 3 tcp 1040 ------- 2 1.0 6.0 29 43
r 1.284983 5 6 tcp 1040 ------- 2 1.0 6.0 19 28
+ 1.284983 6 5 ack 40 ------- 2 6.0 1.0 19 58
- 1.284983 6 5 ack 40 ------- 2 6.0 1.0 19 58
r 1.286549 3 5 tcp 1040 ------- 2 1.0 6.0 20 30
+ 1.286549 5 6 tcp 1040 ------- 2 1.0 6.0 20 30
- 1.286549 5 6 tcp 1040 ------- 2 1.0 6.0 20 30
r 1.287303 6 5 ack 40 ------- 2 6.0 1.0 19 58
+ 1.287303 5 3 ack 40 ------- 2 6.0 1.0 19 58
- 1.287303 5 3 ack 40 ------- 2 6.0 1.0 19 58
r 1.28976 5 3 ack 40 ------- 2 6.0 1.0 19 58
+ 1.28976 3 2 ack 40 ------- 2 6.0 1.0 19 58
- 1.28976 3 2 ack 40 ------- 2 6.0 1.0 19 58
- 1.290971 1 2 tcp 1040 ------- 2 1.0 6.0 31 46
r 1.292217 3 2 ack 40 ------- 2 6.0 1.0 19 58
+ 1.292217 2 1 ack 40 ------- 2 6.0 1.0 19 58
- 1.292217 2 1 ack 40 ------- 2 6.0 1.0 19 58
r 1.292971 1 2 tcp 1040 ------- 2 1.0 6.0 30 45
+ 1.292971 2 3 tcp 1040 ------- 2 1.0 6.0 30 45
- 1.294434 2 3 tcp 1040 ------- 2 1.0 6.0 23 34
r 1.294537 2 1 ack 40 ------- 2 6.0 1.0 19 58
+ 1.294537 1 2 tcp 1040 ------- 2 1.0 6.0 39 59
r 1.296434 2 3 tcp 1040 ------- 2 1.0 6.0 22 33
+ 1.296434 3 5 tcp 1040 ------- 2 1.0 6.0 22 33
- 1.296434 3 5 tcp 1040 ------- 2 1.0 6.0 22 33
r 1.296869 5 6 tcp 1040 ------- 2 1.0 6.0 20 30
+ 1.296869 6 5 ack 40 ------- 2 6.0 1.0 20 60
- 1.296869 6 5 ack 40 ------- 2 6.0 1.0 20 60
r 1.298434 3 5 tcp 1040 ------- 2 1.0 6.0 21 31
+ 1.298434 5 6 tcp 1040 ------- 2 1.0 6.0 21 31
- 1.298434 5 6 tcp 1040 ------- 2 1.0 6.0 21 31
r 1.299189 6 5 ack 40 ------- 2 6.0 1.0 20 60
+ 1.299189 5 3 ack 40 ------- 2 6.0 1.0 20 60
- 1.299189 5 3 ack 40 ------- 2 6.0 1.0 20 60
- 1.299291 1 2 tcp 1040 ------- 2 1.0 6.0 32 48
r 1.301291 1 2 tcp 1040 ------- 2 1.0 6.0 31 46
+ 1.301291 2 3 tcp 1040 ------- 2 1.0 6.0 31 46
r 1.301646 5 3 ack 40 ------- 2 6.0 1.0 20 60
+ 1.301646 3 2 ack 40 ------- 2 6.0 1.0 20 60
- 1.301646 3 2 ack 40 ------- 2 6.0 1.0 20 60
r 1.304103 3 2 ack 40 ------- 2 6.0 1.0 20 60
+ 1.304103 2 1 ack 40 ------- 2 6.0 1.0 20 60
- 1.304103 2 1 ack 40 ------- 2 6.0 1.0 20 60
- 1.30632 2 3 tcp 1040 ------- 2 1.0 6.0 24 36
r 1.306423 2 1 ack 40 ------- 2 6.0 1.0 20 60
+ 1.306423 1 2 tcp 1040 ------- 2 1.0 6.0 40 61
- 1.307611 1 2 tcp 1040 ------- 2 1.0 6.0 33 49
r 1.30832 2 3 tcp 1040 ------- 2 1.0 6.0 23 34
+ 1.30832 3 5 tcp 1040 ------- 2 1.0 6.0 23 34
- 1.30832 3 5 tcp 1040 ------- 2 1.0 6.0 23 34
r 1.308754 5 6 tcp 1040 ------- 2 1.0 6.0 21 31
+ 1.308754 6 5 ack 40 ------- 2 6.0 1.0 21 62
- 1.308754 6 5 ack 40 ------- 2 6.0 1.0 21 62
r 1.309611 1 2 tcp 1040 ------- 2 1.0 6.0 32 48
+ 1.309611 2 3 tcp 1040 ------- 2 1.0 6.0 32 48
r 1.31032 3 5 tcp 1040 ------- 2 1.0 6.0 22 33
+ 1.31032 5 6 tcp 1040 ------- 2 1.0 6.0 22 33
- 1.31032 5 6 tcp 1040 ------- 2 1.0 6.0 22 33
r 1.311074 6 5 ack 40 ------- 2 6.0 1.0 21 62
+ 1.311074 5 3 ack 40 ------- 2 6.0 1.0 21 62
- 1.311074 5 3 ack 40 ------- 2 6.0 1.0 21 62
r 1.313531 5 3 ack 40 ------- 2 6.0 1.0 21 62
+ 1.313531 3 2 ack 40 ------- 2 6.0 1.0 21 62
- 1.313531 3 2 ack 40 ------- 2 6.0 1.0 21 62
- 1.315931 1 2 tcp 1040 ------- 2 1.0 6.0 34 51
r 1.315989 3 2 ack 40 ------- 2 6.0 1.0 21 62
+ 1.315989 2 1 ack 40 ------- 2 6.0 1.0 21 62
- 1.315989 2 1 ack 40 ------- 2 6.0 1.0 21 62
r 1.317931 1 2 tcp 1040 ------- 2 1.0 6.0 33 49
+ 1.317931 2 3 tcp 1040 ------- 2 1.0 6.0 33 49
- 1.318206 2 3 tcp 1040 ------- 2 1.0 6.0 25 37
r 1.318309 2 1 ack 40 ------- 2 6.0 1.0 21 62
+ 1.318309 1 2 tcp 1040 ------- 2 1.0 6.0 41 63
r 1.320206 2 3 tcp 1040 ------- 2 1.0 6.0 24 36
+ 1.320206 3 5 tcp 1040 ------- 2 1.0 6.0 24 36
- 1.320206 3 5 tcp 1040 ------- 2 1.0 6.0 24 36
r 1.32064 5 6 tcp 1040 ------- 2 1.0 6.0 22 33
+ 1.32064 6 5 ack 40 ------- 2 6.0 1.0 22 64
- 1.32064 6 5 ack 40 ------- 2 6.0 1.0 22 64
r 1.322206 3 5 tcp 1040 ------- 2 1.0 6.0 23 34
+ 1.322206 5 6 tcp 1040 ------- 2 1.0 6.0 23 34
- 1.322206 5 6 tcp 1040 ------- 2 1.0 6.0 23 34
r 1.32296 6 5 ack 40 ------- 2 6.0 1.0 22 64
+ 1.32296 5 3 ack 40 ------- 2 6.0 1.0 22 64
- 1.32296 5 3 ack 40 ------- 2 6.0 1.0 22 64
- 1.324251 1 2 tcp 1040 ------- 2 1.0 6.0 35 52
r 1.325417 5 3 ack 40 ------- 2 6.0 1.0 22 64
+ 1.325417 3 2 ack 40 ------- 2 6.0 1.0 22 64
- 1.325417 3 2 ack 40 ------- 2 6.0 1.0 22 64
r 1.326251 1 2 tcp 1040 ------- 2 1.0 6.0 34 51
+ 1.326251 2 3 tcp 1040 ------- 2 1.0 6.0 34 51
r 1.327874 3 2 ack 40 ------- 2 6.0 1.0 22 64
+ 1.327874 2 1 ack 40 ------- 2 6.0 1.0 22 64
- 1.327874 2 1 ack 40 ------- 2 6.0 1.0 22 64
- 1.330091 2 3 tcp 1040 ------- 2 1.0 6.0 26 39
r 1.330194 2 1 ack 40 ------- 2 6.0 1.0 22 64
+ 1.330194 1 2 tcp 1040 ------- 2 1.0 6.0 42 65
r 1.332091 2 3 tcp 1040 ------- 2 1.0 6.0 25 37
+ 1.332091 3 5 tcp 1040 ------- 2 1.0 6.0 25 37
- 1.332091 3 5 tcp 1040 ------- 2 1.0 6.0 25 37
r 1.332526 5 6 tcp 1040 ------- 2 1.0 6.0 23 34
+ 1.332526 6 5 ack 40 ------- 2 6.0 1.0 23 66
- 1.332526 6 5 ack 40 ------- 2 6.0 1.0 23 66
- 1.332571 1 2 tcp 1040 ------- 2 1.0 6.0 36 54
r 1.334091 3 5 tcp 1040 ------- 2 1.0 6.0 24 36
+ 1.334091 5 6 tcp 1040 ------- 2 1.0 6.0 24 36
- 1.334091 5 6 tcp 1040 ------- 2 1.0 6.0 24 36
r 1.334571 1 2 tcp 1040 ------- 2 1.0 6.0 35 52
+ 1.334571 2 3 tcp 1040 ------- 2 1.0 6.0 35 52
r 1.334846 6 5 ack 40 ------- 2 6.0 1.0 23 66
+ 1.334846 5 3 ack 40 ------- 2 6.0 1.0 23 66
- 1.334846 5 3 ack 40 ------- 2 6.0 1.0 23 66
r 1.337303 5 3 ack 40 ------- 2 6.0 1.0 23 66
+ 1.337303 3 2 ack 40 ------- 2 6.0 1.0 23 66
- 1.337303 3 2 ack 40 ------- 2 6.0 1.0 23 66
r 1.33976 3 2 ack 40 ------- 2 6.0 1.0 23 66
+ 1.33976 2 1 ack 40 ------- 2 6.0 1.0 23 66
- 1.33976 2 1 ack 40 ------- 2 6.0 1.0 23 66
- 1.340891 1 2 tcp 1040 ------- 2 1.0 6.0 37 55
- 1.341977 2 3 tcp 1040 ------- 2 1.0 6.0 27 40
r 1.34208 2 1 ack 40 ------- 2 6.0 1.0 23 66
+ 1.34208 1 2 tcp 1040 ------- 2 1.0 6.0 43 67